  60  60   0   0
  0.1745403E+02  0.8674000E-09  0.8674000E-09  0.1391900E-08  0.5000000E-15
  1.000000000000000E-004
  CAR 
 DDEC                                    
     10.17565838    -22.25564837  301     -1.25637725      1.00000000
    -22.256  0.0000E+00  0.0000E+00
    -22.148  0.0000E+00  0.0000E+00
    -22.039  0.0000E+00  0.0000E+00
    -21.931  0.0000E+00  0.0000E+00
    -21.823  0.0000E+00  0.0000E+00
    -21.715  0.0000E+00  0.0000E+00
    -21.607  0.0000E+00  0.0000E+00
    -21.499  0.0000E+00  0.0000E+00
    -21.391  0.0000E+00  0.0000E+00
    -21.283  0.0000E+00  0.0000E+00
    -21.175  0.0000E+00  0.0000E+00
    -21.067  0.0000E+00  0.0000E+00
    -20.958  0.0000E+00  0.0000E+00
    -20.850  0.0000E+00  0.0000E+00
    -20.742  0.1850E+02  0.2000E+01
    -20.634  0.0000E+00  0.2000E+01
    -20.526  0.1173E+02  0.3268E+01
    -20.418  0.1850E+02  0.6000E+01
    -20.310  0.0000E+00  0.6000E+01
    -20.202  0.1729E+02  0.7869E+01
    -20.094  0.5304E+02  0.1373E+02
    -19.985  0.5550E+02  0.2000E+02
    -19.877  0.0000E+00  0.2000E+02
    -19.769  0.0000E+00  0.2000E+02
    -19.661  0.2494E+01  0.2027E+02
    -19.553  0.3445E+02  0.2772E+02
    -19.445  0.4077E+02  0.3241E+02
    -19.337  0.0000E+00  0.3400E+02
    -19.229  0.0000E+00  0.3400E+02
    -19.121  0.1811E+02  0.3596E+02
    -19.013  0.1850E+02  0.3800E+02
    -18.904  0.0000E+00  0.3800E+02
    -18.796  0.2310E-01  0.3800E+02
    -18.688  0.2256E+03  0.6639E+02
    -18.580  0.7400E+02  0.8000E+02
    -18.472  0.0000E+00  0.8000E+02
    -18.364  0.0000E+00  0.8000E+02
    -18.256  0.0000E+00  0.8000E+02
    -18.148  0.0000E+00  0.8000E+02
    -18.040  0.0000E+00  0.8000E+02
    -17.931  0.0000E+00  0.8000E+02
    -17.823  0.0000E+00  0.8000E+02
    -17.715  0.0000E+00  0.8000E+02
    -17.607  0.0000E+00  0.8000E+02
    -17.499  0.0000E+00  0.8000E+02
    -17.391  0.0000E+00  0.8000E+02
    -17.283  0.0000E+00  0.8000E+02
    -17.175  0.0000E+00  0.8000E+02
    -17.067  0.0000E+00  0.8000E+02
    -16.959  0.0000E+00  0.8000E+02
    -16.850  0.0000E+00  0.8000E+02
    -16.742  0.0000E+00  0.8000E+02
    -16.634  0.0000E+00  0.8000E+02
    -16.526  0.0000E+00  0.8000E+02
    -16.418  0.0000E+00  0.8000E+02
    -16.310  0.0000E+00  0.8000E+02
    -16.202  0.0000E+00  0.8000E+02
    -16.094  0.0000E+00  0.8000E+02
    -15.986  0.0000E+00  0.8000E+02
    -15.877  0.0000E+00  0.8000E+02
    -15.769  0.0000E+00  0.8000E+02
    -15.661  0.0000E+00  0.8000E+02
    -15.553  0.0000E+00  0.8000E+02
    -15.445  0.0000E+00  0.8000E+02
    -15.337  0.0000E+00  0.8000E+02
    -15.229  0.0000E+00  0.8000E+02
    -15.121  0.0000E+00  0.8000E+02
    -15.013  0.0000E+00  0.8000E+02
    -14.905  0.0000E+00  0.8000E+02
    -14.796  0.0000E+00  0.8000E+02
    -14.688  0.0000E+00  0.8000E+02
    -14.580  0.0000E+00  0.8000E+02
    -14.472  0.0000E+00  0.8000E+02
    -14.364  0.0000E+00  0.8000E+02
    -14.256  0.0000E+00  0.8000E+02
    -14.148  0.0000E+00  0.8000E+02
    -14.040  0.0000E+00  0.8000E+02
    -13.932  0.0000E+00  0.8000E+02
    -13.824  0.0000E+00  0.8000E+02
    -13.715  0.0000E+00  0.8000E+02
    -13.607  0.0000E+00  0.8000E+02
    -13.499  0.0000E+00  0.8000E+02
    -13.391  0.0000E+00  0.8000E+02
    -13.283  0.0000E+00  0.8000E+02
    -13.175  0.0000E+00  0.8000E+02
    -13.067  0.0000E+00  0.8000E+02
    -12.959  0.0000E+00  0.8000E+02
    -12.851  0.0000E+00  0.8000E+02
    -12.742  0.0000E+00  0.8000E+02
    -12.634  0.0000E+00  0.8000E+02
    -12.526  0.0000E+00  0.8000E+02
    -12.418  0.0000E+00  0.8000E+02
    -12.310  0.0000E+00  0.8000E+02
    -12.202  0.0000E+00  0.8000E+02
    -12.094  0.0000E+00  0.8000E+02
    -11.986  0.0000E+00  0.8000E+02
    -11.878  0.0000E+00  0.8000E+02
    -11.770  0.0000E+00  0.8000E+02
    -11.661  0.0000E+00  0.8000E+02
    -11.553  0.0000E+00  0.8000E+02
    -11.445  0.0000E+00  0.8000E+02
    -11.337  0.0000E+00  0.8000E+02
    -11.229  0.0000E+00  0.8000E+02
    -11.121  0.0000E+00  0.8000E+02
    -11.013  0.0000E+00  0.8000E+02
    -10.905  0.0000E+00  0.8000E+02
    -10.797  0.0000E+00  0.8000E+02
    -10.688  0.1850E+02  0.8200E+02
    -10.580  0.0000E+00  0.8200E+02
    -10.472  0.0000E+00  0.8200E+02
    -10.364  0.0000E+00  0.8200E+02
    -10.256  0.0000E+00  0.8200E+02
    -10.148  0.1850E+02  0.8400E+02
    -10.040  0.0000E+00  0.8400E+02
     -9.932  0.1843E-04  0.8400E+02
     -9.824  0.1850E+02  0.8600E+02
     -9.716  0.0000E+00  0.8600E+02
     -9.607  0.0000E+00  0.8600E+02
     -9.499  0.0000E+00  0.8600E+02
     -9.391  0.7183E-01  0.8601E+02
     -9.283  0.1850E+02  0.9200E+02
     -9.175  0.5447E+02  0.9789E+02
     -9.067  0.0000E+00  0.9800E+02
     -8.959  0.5299E+00  0.9806E+02
     -8.851  0.0000E+00  0.1000E+03
     -8.743  0.0000E+00  0.1000E+03
     -8.634  0.0000E+00  0.1000E+03
     -8.526  0.6952E-02  0.1000E+03
     -8.418  0.0000E+00  0.1040E+03
     -8.310  0.1197E-08  0.1040E+03
     -8.202  0.3700E+02  0.1080E+03
     -8.094  0.1850E+02  0.1100E+03
     -7.986  0.0000E+00  0.1100E+03
     -7.878  0.1141E-11  0.1100E+03
     -7.770  0.3700E+02  0.1140E+03
     -7.662  0.0000E+00  0.1140E+03
     -7.553  0.0000E+00  0.1140E+03
     -7.445  0.9005E+00  0.1141E+03
     -7.337  0.0000E+00  0.1160E+03
     -7.229  0.0000E+00  0.1160E+03
     -7.121  0.2129E-03  0.1160E+03
     -7.013  0.1850E+02  0.1180E+03
     -6.905  0.3700E+02  0.1220E+03
     -6.797  0.6290E+02  0.1308E+03
     -6.689  0.1586E-03  0.1340E+03
     -6.581  0.4983E+02  0.1394E+03
     -6.472  0.3860E+02  0.1442E+03
     -6.364  0.0000E+00  0.1460E+03
     -6.256  0.0000E+00  0.1460E+03
     -6.148  0.3700E+02  0.1500E+03
     -6.040  0.3182E+02  0.1534E+03
     -5.932  0.1847E+02  0.1560E+03
     -5.824  0.0000E+00  0.1560E+03
     -5.716  0.3700E+02  0.1600E+03
     -5.608  0.0000E+00  0.1600E+03
     -5.499  0.0000E+00  0.1600E+03
     -5.391  0.0000E+00  0.1600E+03
     -5.283  0.1820E+02  0.1620E+03
     -5.175  0.4354E-07  0.1620E+03
     -5.067  0.1850E+02  0.1640E+03
     -4.959  0.0000E+00  0.1640E+03
     -4.851  0.0000E+00  0.1640E+03
     -4.743  0.2941E+02  0.1672E+03
     -4.635  0.5127E-06  0.1680E+03
     -4.527  0.5550E+02  0.1740E+03
     -4.418  0.2001E-02  0.1740E+03
     -4.310  0.9251E+02  0.1860E+03
     -4.202  0.1859E+02  0.1900E+03
     -4.094  0.9249E+01  0.1930E+03
     -3.986  0.1021E-02  0.1960E+03
     -3.878  0.3700E+02  0.2020E+03
     -3.770  0.1850E+02  0.2040E+03
     -3.662  0.1232E-13  0.2040E+03
     -3.554  0.5541E+02  0.2100E+03
     -3.445  0.1873E+02  0.2120E+03
     -3.337  0.6771E+01  0.2147E+03
     -3.229  0.1850E+02  0.2240E+03
     -3.121  0.3508E+02  0.2278E+03
     -3.013  0.5546E+02  0.2340E+03
     -2.905  0.4370E+02  0.2387E+03
     -2.797  0.4376E+02  0.2487E+03
     -2.689  0.9616E+02  0.2604E+03
     -2.581  0.7393E+02  0.2720E+03
     -2.473  0.1850E+02  0.2740E+03
     -2.364  0.3795E+02  0.2781E+03
     -2.256  0.3605E+02  0.2879E+03
     -2.148  0.4423E+01  0.2885E+03
     -2.040  0.0000E+00  0.2940E+03
     -1.932  0.1854E+02  0.2960E+03
     -1.824  0.5550E+02  0.3040E+03
     -1.716  0.3700E+02  0.3080E+03
     -1.608  0.6419E+00  0.3081E+03
     -1.500  0.2958E+02  0.3152E+03
     -1.392  0.1850E+02  0.3180E+03
     -1.283  0.1850E+02  0.3200E+03
     -1.175  0.0000E+00  0.3200E+03
     -1.067  0.0000E+00  0.3200E+03
     -0.959  0.0000E+00  0.3200E+03
     -0.851  0.0000E+00  0.3200E+03
     -0.743  0.0000E+00  0.3200E+03
     -0.635  0.0000E+00  0.3200E+03
     -0.527  0.0000E+00  0.3200E+03
     -0.419  0.0000E+00  0.3200E+03
     -0.310  0.0000E+00  0.3200E+03
     -0.202  0.0000E+00  0.3200E+03
     -0.094  0.0000E+00  0.3200E+03
      0.014  0.0000E+00  0.3200E+03
      0.122  0.0000E+00  0.3200E+03
      0.230  0.0000E+00  0.3200E+03
      0.338  0.0000E+00  0.3200E+03
      0.446  0.0000E+00  0.3200E+03
      0.554  0.0000E+00  0.3200E+03
      0.662  0.0000E+00  0.3200E+03
      0.771  0.0000E+00  0.3200E+03
      0.879  0.0000E+00  0.3200E+03
      0.987  0.0000E+00  0.3200E+03
      1.095  0.0000E+00  0.3200E+03
      1.203  0.0000E+00  0.3200E+03
      1.311  0.0000E+00  0.3200E+03
      1.419  0.0000E+00  0.3200E+03
      1.527  0.0000E+00  0.3200E+03
      1.635  0.0000E+00  0.3200E+03
      1.744  0.0000E+00  0.3200E+03
      1.852  0.0000E+00  0.3200E+03
      1.960  0.0000E+00  0.3200E+03
      2.068  0.0000E+00  0.3200E+03
      2.176  0.0000E+00  0.3200E+03
      2.284  0.0000E+00  0.3200E+03
      2.392  0.0000E+00  0.3200E+03
      2.500  0.0000E+00  0.3200E+03
      2.608  0.0000E+00  0.3200E+03
      2.716  0.0000E+00  0.3200E+03
      2.825  0.0000E+00  0.3200E+03
      2.933  0.0000E+00  0.3200E+03
      3.041  0.0000E+00  0.3200E+03
      3.149  0.0000E+00  0.3200E+03
      3.257  0.0000E+00  0.3200E+03
      3.365  0.0000E+00  0.3200E+03
      3.473  0.0000E+00  0.3200E+03
      3.581  0.0000E+00  0.3200E+03
      3.689  0.0000E+00  0.3200E+03
      3.798  0.0000E+00  0.3200E+03
      3.906  0.0000E+00  0.3200E+03
      4.014  0.0000E+00  0.3200E+03
      4.122  0.0000E+00  0.3200E+03
      4.230  0.1819E+02  0.3220E+03
      4.338  0.0000E+00  0.3220E+03
      4.446  0.0000E+00  0.3220E+03
      4.554  0.0000E+00  0.3220E+03
      4.662  0.0000E+00  0.3220E+03
      4.770  0.0000E+00  0.3220E+03
      4.879  0.0000E+00  0.3220E+03
      4.987  0.0000E+00  0.3220E+03
      5.095  0.0000E+00  0.3220E+03
      5.203  0.1420E+02  0.3235E+03
      5.311  0.0000E+00  0.3240E+03
      5.419  0.0000E+00  0.3240E+03
      5.527  0.4521E-06  0.3240E+03
      5.635  0.1850E+02  0.3260E+03
      5.743  0.0000E+00  0.3260E+03
      5.851  0.0000E+00  0.3260E+03
      5.960  0.0000E+00  0.3260E+03
      6.068  0.0000E+00  0.3260E+03
      6.176  0.0000E+00  0.3260E+03
      6.284  0.1780E+02  0.3279E+03
      6.392  0.0000E+00  0.3280E+03
      6.500  0.8562E-01  0.3280E+03
      6.608  0.1850E+02  0.3320E+03
      6.716  0.1463E-06  0.3320E+03
      6.824  0.3700E+02  0.3360E+03
      6.933  0.1523E+00  0.3360E+03
      7.041  0.0000E+00  0.3380E+03
      7.149  0.2567E+02  0.3408E+03
      7.257  0.3700E+02  0.3500E+03
      7.365  0.1497E+02  0.3516E+03
      7.473  0.0000E+00  0.3520E+03
      7.581  0.8801E-07  0.3520E+03
      7.689  0.2078E+02  0.3542E+03
      7.797  0.0000E+00  0.3580E+03
      7.905  0.1821E+02  0.3600E+03
      8.014  0.5528E+02  0.3660E+03
      8.122  0.9402E+01  0.3670E+03
      8.230  0.3534E+02  0.3718E+03
      8.338  0.2878E+02  0.3771E+03
      8.446  0.0000E+00  0.3780E+03
      8.554  0.1850E+02  0.3800E+03
      8.662  0.2505E-06  0.3820E+03
      8.770  0.1850E+02  0.3840E+03
      8.878  0.0000E+00  0.3840E+03
      8.987  0.0000E+00  0.3840E+03
      9.095  0.0000E+00  0.3840E+03
      9.203  0.0000E+00  0.3840E+03
      9.311  0.0000E+00  0.3840E+03
      9.419  0.0000E+00  0.3840E+03
      9.527  0.0000E+00  0.3840E+03
      9.635  0.0000E+00  0.3840E+03
      9.743  0.0000E+00  0.3840E+03
      9.851  0.0000E+00  0.3840E+03
      9.959  0.0000E+00  0.3840E+03
     10.068  0.0000E+00  0.3840E+03
     10.176  0.0000E+00  0.3840E+03
