<?xml version="1.0" encoding="ISO-8859-1"?>
<modeling>
 <generator>
  <i name="program" type="string">vasp </i>
  <i name="version" type="string">5.4.4.18Apr17-6-g9f103f2a35  </i>
  <i name="subversion" type="string">(build Apr 27 2022 15:47:04) complex            parallel </i>
  <i name="platform" type="string">LinuxIFC </i>
  <i name="date" type="string">2023 05 10 </i>
  <i name="time" type="string">00:00:55 </i>
 </generator>
 <incar>
  <i type="string" name="SYSTEM"> DDEC</i>
  <i type="int" name="ISTART">     0</i>
  <i type="string" name="PREC">accurate</i>
  <i type="int" name="IALGO">    48</i>
  <i type="int" name="ICHARG">     2</i>
  <i type="int" name="NSW">     0</i>
  <i name="ENCUT">    400.00000000</i>
  <i type="string" name="LREAL"> Auto</i>
  <i type="int" name="ISMEAR">     0</i>
  <i name="SIGMA">      0.01000000</i>
  <i type="logical" name="LCHARG"> T  </i>
  <i type="logical" name="LAECHG"> T  </i>
  <v type="int" name="KPOINT_BSE">    -1     0     0     0</v>
  <i type="string" name="GGA"> Pe</i>
 </incar>
 <structure name="primitive_cell" >
  <crystal>
   <varray name="basis" >
    <v>       8.67400000       0.00000000       0.00000000 </v>
    <v>      -0.00000000       8.67400000       0.00000000 </v>
    <v>       0.00000000       0.00000000      13.91900000 </v>
   </varray>
   <i name="volume">   1047.24156364 </i>
   <varray name="rec_basis" >
    <v>       0.11528706       0.00000000       0.00000000 </v>
    <v>       0.00000000       0.11528706       0.00000000 </v>
    <v>      -0.00000000      -0.00000000       0.07184424 </v>
   </varray>
  </crystal>
  <varray name="positions" >
   <v>       0.25340000       0.43080000       0.11140000 </v>
   <v>       0.39380000       0.31100000       0.13210000 </v>
   <v>       0.31100000      -0.39380000       0.13210000 </v>
   <v>       0.19850000       0.41550000       0.00000000 </v>
   <v>       0.10890000       0.39260000       0.18220000 </v>
   <v>       0.00000000      -0.50000000       0.25000000 </v>
   <v>       0.25340000       0.43080000      -0.11140000 </v>
   <v>      -0.43080000       0.25340000       0.11140000 </v>
   <v>       0.43080000      -0.25340000       0.11140000 </v>
   <v>       0.10890000      -0.39260000       0.31780000 </v>
   <v>       0.31100000       0.39380000       0.36790000 </v>
   <v>      -0.10890000      -0.39260000       0.18220000 </v>
   <v>       0.39380000       0.31100000      -0.13210000 </v>
   <v>       0.31100000      -0.39380000      -0.13210000 </v>
   <v>      -0.31100000       0.39380000       0.13210000 </v>
   <v>      -0.39380000      -0.31100000       0.13210000 </v>
   <v>      -0.41550000       0.19850000       0.00000000 </v>
   <v>       0.41550000      -0.19850000       0.00000000 </v>
   <v>       0.25340000      -0.43080000       0.38860000 </v>
   <v>       0.39260000       0.10890000       0.31780000 </v>
   <v>      -0.39260000       0.10890000       0.18220000 </v>
   <v>      -0.10890000       0.39260000       0.31780000 </v>
   <v>       0.39260000      -0.10890000       0.18220000 </v>
   <v>       0.10890000       0.39260000      -0.18220000 </v>
   <v>       0.39380000      -0.31100000       0.36790000 </v>
   <v>       0.43080000      -0.25340000      -0.11140000 </v>
   <v>      -0.43080000       0.25340000      -0.11140000 </v>
   <v>      -0.19850000      -0.41550000       0.00000000 </v>
   <v>       0.43080000       0.25340000       0.38860000 </v>
   <v>      -0.25340000      -0.43080000       0.11140000 </v>
   <v>      -0.50000000       0.00000000       0.25000000 </v>
   <v>      -0.39380000       0.31100000       0.36790000 </v>
   <v>      -0.31100000       0.39380000      -0.13210000 </v>
   <v>      -0.39380000      -0.31100000      -0.13210000 </v>
   <v>      -0.10890000      -0.39260000      -0.18220000 </v>
   <v>      -0.31100000      -0.39380000       0.36790000 </v>
   <v>      -0.25340000      -0.43080000      -0.11140000 </v>
   <v>      -0.43080000      -0.25340000       0.38860000 </v>
   <v>       0.00000000      -0.50000000      -0.25000000 </v>
   <v>       0.19850000      -0.41550000      -0.50000000 </v>
   <v>      -0.25340000       0.43080000       0.38860000 </v>
   <v>      -0.39260000      -0.10890000       0.31780000 </v>
   <v>      -0.39260000       0.10890000      -0.18220000 </v>
   <v>       0.39260000      -0.10890000      -0.18220000 </v>
   <v>       0.41550000       0.19850000      -0.50000000 </v>
   <v>       0.10890000      -0.39260000      -0.31780000 </v>
   <v>      -0.50000000       0.00000000      -0.25000000 </v>
   <v>      -0.19850000       0.41550000      -0.50000000 </v>
   <v>       0.31100000       0.39380000      -0.36790000 </v>
   <v>       0.39260000       0.10890000      -0.31780000 </v>
   <v>      -0.10890000       0.39260000      -0.31780000 </v>
   <v>      -0.41550000      -0.19850000      -0.50000000 </v>
   <v>       0.25340000      -0.43080000      -0.38860000 </v>
   <v>       0.39380000      -0.31100000      -0.36790000 </v>
   <v>       0.43080000       0.25340000      -0.38860000 </v>
   <v>      -0.39380000       0.31100000      -0.36790000 </v>
   <v>      -0.39260000      -0.10890000      -0.31780000 </v>
   <v>      -0.31100000      -0.39380000      -0.36790000 </v>
   <v>      -0.43080000      -0.25340000      -0.38860000 </v>
   <v>      -0.25340000       0.43080000      -0.38860000 </v>
  </varray>
 </structure>
 <varray name="primitive_index" >
  <v type="int" >        1 </v>
  <v type="int" >       45 </v>
  <v type="int" >       48 </v>
  <v type="int" >       37 </v>
  <v type="int" >       33 </v>
  <v type="int" >       17 </v>
  <v type="int" >       11 </v>
  <v type="int" >        2 </v>
  <v type="int" >        4 </v>
  <v type="int" >       21 </v>
  <v type="int" >       60 </v>
  <v type="int" >       35 </v>
  <v type="int" >       55 </v>
  <v type="int" >       54 </v>
  <v type="int" >       46 </v>
  <v type="int" >       47 </v>
  <v type="int" >       38 </v>
  <v type="int" >       40 </v>
  <v type="int" >       13 </v>
  <v type="int" >       22 </v>
  <v type="int" >       36 </v>
  <v type="int" >       23 </v>
  <v type="int" >       34 </v>
  <v type="int" >       27 </v>
  <v type="int" >       57 </v>
  <v type="int" >       10 </v>
  <v type="int" >       12 </v>
  <v type="int" >       39 </v>
  <v type="int" >       16 </v>
  <v type="int" >        3 </v>
  <v type="int" >       18 </v>
  <v type="int" >       59 </v>
  <v type="int" >       56 </v>
  <v type="int" >       53 </v>
  <v type="int" >       25 </v>
  <v type="int" >       58 </v>
  <v type="int" >        9 </v>
  <v type="int" >       14 </v>
  <v type="int" >       19 </v>
  <v type="int" >       43 </v>
  <v type="int" >       15 </v>
  <v type="int" >       24 </v>
  <v type="int" >       26 </v>
  <v type="int" >       28 </v>
  <v type="int" >       42 </v>
  <v type="int" >       31 </v>
  <v type="int" >       20 </v>
  <v type="int" >       41 </v>
  <v type="int" >       50 </v>
  <v type="int" >       32 </v>
  <v type="int" >       29 </v>
  <v type="int" >       44 </v>
  <v type="int" >        7 </v>
  <v type="int" >       51 </v>
  <v type="int" >        6 </v>
  <v type="int" >       49 </v>
  <v type="int" >       30 </v>
  <v type="int" >       52 </v>
  <v type="int" >        8 </v>
  <v type="int" >        5 </v>
 </varray>
 <kpoints>
  <generation param="Gamma">
   <v type="int" name="divisions">       1        1        1 </v>
   <v name="usershift">      0.00000000       0.00000000       0.00000000 </v>
   <v name="genvec1">      1.00000000      -0.00000000       0.00000000 </v>
   <v name="genvec2">      0.00000000       1.00000000       0.00000000 </v>
   <v name="genvec3">     -0.00000000      -0.00000000       1.00000000 </v>
   <v name="shift">      0.00000000       0.00000000       0.00000000 </v>
  </generation>
  <varray name="kpointlist" >
   <v>       0.00000000       0.00000000       0.00000000 </v>
  </varray>
  <varray name="weights" >
   <v>       1.00000000 </v>
  </varray>
 </kpoints>
 <parameters>
  <separator name="general" >
   <i type="string" name="SYSTEM">DDEC</i>
   <i type="logical" name="LCOMPAT"> F  </i>
  </separator>
  <separator name="electronic" >
   <i type="string" name="PREC">accura</i>
   <i name="ENMAX">    400.00000000</i>
   <i name="ENAUG">    605.39200000</i>
   <i name="EDIFF">      0.00010000</i>
   <i type="int" name="IALGO">    48</i>
   <i type="int" name="IWAVPR">    10</i>
   <i type="int" name="NBANDS">   192</i>
   <i name="NELECT">    320.00000000</i>
   <i type="int" name="TURBO">     0</i>
   <i type="int" name="IRESTART">     0</i>
   <i type="int" name="NREBOOT">     0</i>
   <i type="int" name="NMIN">     0</i>
   <i name="EREF">      0.00000000</i>
   <separator name="electronic smearing" >
    <i type="int" name="ISMEAR">     0</i>
    <i name="SIGMA">      0.01000000</i>
    <i name="KSPACING">      0.50000000</i>
    <i type="logical" name="KGAMMA"> T  </i>
   </separator>
   <separator name="electronic projectors" >
    <i type="logical" name="LREAL"> T  </i>
    <v name="ROPT">     -0.00025000     -0.00025000</v>
    <i type="int" name="LMAXPAW">  -100</i>
    <i type="int" name="LMAXMIX">     2</i>
    <i type="logical" name="NLSPLINE"> F  </i>
   </separator>
   <separator name="electronic startup" >
    <i type="int" name="ISTART">     0</i>
    <i type="int" name="ICHARG">     2</i>
    <i type="int" name="INIWAV">     1</i>
   </separator>
   <separator name="electronic spin" >
    <i type="int" name="ISPIN">     1</i>
    <i type="logical" name="LNONCOLLINEAR"> F  </i>
    <v name="MAGMOM">      1.00000000      1.00000000      1.00000000      1.00000000      1.00000000      1.00000000      1.00000000      1.00000000      1.00000000      1.00000000      1.00000000      1.00000000      1.00000000      1.00000000      1.00000000      1.00000000      1.00000000      1.00000000      1.00000000      1.00000000
      1.00000000      1.00000000      1.00000000      1.00000000      1.00000000      1.00000000      1.00000000      1.00000000      1.00000000      1.00000000      1.00000000      1.00000000      1.00000000      1.00000000      1.00000000      1.00000000      1.00000000      1.00000000      1.00000000      1.00000000
      1.00000000      1.00000000      1.00000000      1.00000000      1.00000000      1.00000000      1.00000000      1.00000000      1.00000000      1.00000000      1.00000000      1.00000000      1.00000000      1.00000000      1.00000000      1.00000000      1.00000000      1.00000000      1.00000000      1.00000000
</v>
    <i name="NUPDOWN">     -1.00000000</i>
    <i type="logical" name="LSORBIT"> F  </i>
    <v name="SAXIS">      0.00000000      0.00000000      1.00000000</v>
    <i type="logical" name="LSPIRAL"> F  </i>
    <v name="QSPIRAL">      0.00000000      0.00000000      0.00000000</v>
    <i type="logical" name="LZEROZ"> F  </i>
   </separator>
   <separator name="electronic exchange-correlation" >
    <i type="logical" name="LASPH"> F  </i>
    <i type="logical" name="LMETAGGA"> F  </i>
   </separator>
   <separator name="electronic convergence" >
    <i type="int" name="NELM">    60</i>
    <i type="int" name="NELMDL">   -12</i>
    <i type="int" name="NELMIN">     2</i>
    <i name="ENINI">    400.00000000</i>
    <separator name="electronic convergence detail" >
     <i type="logical" name="LDIAG"> T  </i>
     <i type="logical" name="LSUBROT"> F  </i>
     <i name="WEIMIN">      0.00000000</i>
     <i name="EBREAK">      0.00000013</i>
     <i name="DEPER">      0.30000000</i>
     <i type="int" name="NRMM">     4</i>
     <i name="TIME">      0.40000000</i>
    </separator>
   </separator>
   <separator name="electronic mixer" >
    <i name="AMIX">      0.40000000</i>
    <i name="BMIX">      1.00000000</i>
    <i name="AMIN">      0.10000000</i>
    <i name="AMIX_MAG">      1.60000000</i>
    <i name="BMIX_MAG">      1.00000000</i>
    <separator name="electronic mixer details" >
     <i type="int" name="IMIX">     4</i>
     <i type="logical" name="MIXFIRST"> F  </i>
     <i type="int" name="MAXMIX">   -45</i>
     <i name="WC">    100.00000000</i>
     <i type="int" name="INIMIX">     1</i>
     <i type="int" name="MIXPRE">     1</i>
     <i type="int" name="MREMOVE">     5</i>
    </separator>
   </separator>
   <separator name="electronic dipolcorrection" >
    <i type="logical" name="LDIPOL"> F  </i>
    <i type="logical" name="LMONO"> F  </i>
    <i type="int" name="IDIPOL">     0</i>
    <i name="EPSILON">      1.00000000</i>
    <v name="DIPOL">   -100.00000000   -100.00000000   -100.00000000</v>
    <i name="EFIELD">      0.00000000</i>
   </separator>
  </separator>
  <separator name="grids" >
   <i type="int" name="NGX">    60</i>
   <i type="int" name="NGY">    60</i>
   <i type="int" name="NGZ">    96</i>
   <i type="int" name="NGXF">   120</i>
   <i type="int" name="NGYF">   120</i>
   <i type="int" name="NGZF">   192</i>
   <i type="logical" name="ADDGRID"> F  </i>
  </separator>
  <separator name="ionic" >
   <i type="int" name="NSW">     0</i>
   <i type="int" name="IBRION">    -1</i>
   <i type="int" name="MDALGO">     0</i>
   <i type="int" name="ISIF">     2</i>
   <i name="PSTRESS">      0.00000000</i>
   <i name="EDIFFG">      0.00100000</i>
   <i type="int" name="NFREE">     0</i>
   <i name="POTIM">      0.50000000</i>
   <i name="SMASS">     -3.00000000</i>
   <i name="SCALEE">      1.00000000</i>
  </separator>
  <separator name="ionic md" >
   <i name="TEBEG">      0.00010000</i>
   <i name="TEEND">      0.00010000</i>
   <i type="int" name="NBLOCK">     1</i>
   <i type="int" name="KBLOCK">     1</i>
   <i type="int" name="NPACO">   256</i>
   <i name="APACO">     16.00000000</i>
  </separator>
  <separator name="symmetry" >
   <i type="int" name="ISYM">     2</i>
   <i name="SYMPREC">      0.00001000</i>
  </separator>
  <separator name="dos" >
   <i type="int" name="LORBIT">     0</i>
   <v name="RWIGS">     -1.00000000     -1.00000000</v>
   <i type="int" name="NEDOS">   301</i>
   <i name="EMIN">     10.00000000</i>
   <i name="EMAX">    -10.00000000</i>
   <i name="EFERMI">      0.00000000</i>
  </separator>
  <separator name="writing" >
   <i type="int" name="NWRITE">     2</i>
   <i type="logical" name="LWAVE"> T  </i>
   <i type="logical" name="LDOWNSAMPLE"> F  </i>
   <i type="logical" name="LCHARG"> T  </i>
   <i type="logical" name="LPARD"> F  </i>
   <i type="logical" name="LVTOT"> F  </i>
   <i type="logical" name="LVHAR"> F  </i>
   <i type="logical" name="LELF"> F  </i>
   <i type="logical" name="LOPTICS"> F  </i>
   <v name="STM">      0.00000000      0.00000000      0.00000000      0.00000000      0.00000000      0.00000000      0.00000000</v>
  </separator>
  <separator name="performance" >
   <i type="int" name="NPAR">     4</i>
   <i type="int" name="NSIM">     4</i>
   <i type="int" name="NBLK">    -1</i>
   <i type="logical" name="LPLANE"> T  </i>
   <i type="logical" name="LSCALAPACK"> T  </i>
   <i type="logical" name="LSCAAWARE"> F  </i>
   <i type="logical" name="LSCALU"> F  </i>
   <i type="logical" name="LASYNC"> F  </i>
   <i type="logical" name="LORBITALREAL"> F  </i>
  </separator>
  <separator name="miscellaneous" >
   <i type="int" name="IDIOT">     3</i>
   <i type="int" name="ISPECIAL">     0</i>
   <i type="logical" name="LMUSIC"> F  </i>
   <v name="POMASS">     28.08500000     16.00000000</v>
   <v name="DARWINR">      0.00000000      0.00000000</v>
   <v name="DARWINV">      1.00000000      1.00000000</v>
   <i type="logical" name="LCORR"> T  </i>
  </separator>
  <i type="logical" name="GGA_COMPAT"> T  </i>
  <i type="logical" name="LBERRY"> F  </i>
  <i type="int" name="ICORELEVEL">     0</i>
  <i type="logical" name="LDAU"> F  </i>
  <i type="int" name="I_CONSTRAINED_M">     0</i>
  <separator name="electronic exchange-correlation" >
   <i type="string" name="GGA">PE</i>
   <i type="int" name="VOSKOWN">     0</i>
   <i type="logical" name="LHFCALC"> F  </i>
   <i type="string" name="PRECFOCK"></i>
   <i type="logical" name="LSYMGRAD"> F  </i>
   <i type="logical" name="LHFONE"> F  </i>
   <i type="logical" name="LRHFCALC"> F  </i>
   <i type="logical" name="LTHOMAS"> F  </i>
   <i type="logical" name="LMODELHF"> F  </i>
   <i name="ENCUT4O">     -1.00000000</i>
   <i type="int" name="EXXOEP">     0</i>
   <i type="int" name="FOURORBIT">     0</i>
   <i name="AEXX">      0.00000000</i>
   <i name="HFALPHA">      0.00000000</i>
   <i name="MCALPHA">      0.00000000</i>
   <i name="ALDAX">      1.00000000</i>
   <i name="AGGAX">      1.00000000</i>
   <i name="ALDAC">      1.00000000</i>
   <i name="AGGAC">      1.00000000</i>
   <i type="int" name="NKREDX">     1</i>
   <i type="int" name="NKREDY">     1</i>
   <i type="int" name="NKREDZ">     1</i>
   <i type="logical" name="SHIFTRED"> F  </i>
   <i type="logical" name="ODDONLY"> F  </i>
   <i type="logical" name="EVENONLY"> F  </i>
   <i type="int" name="LMAXFOCK">     0</i>
   <i type="int" name="NMAXFOCKAE">     0</i>
   <i type="logical" name="LFOCKAEDFT"> F  </i>
   <i name="HFSCREEN">      0.00000000</i>
   <i name="HFSCREENC">      0.00000000</i>
   <i type="int" name="NBANDSGWLOW">     0</i>
  </separator>
  <separator name="vdW DFT" >
   <i type="logical" name="LUSE_VDW"> F  </i>
   <i name="Zab_VDW">     -0.84910000</i>
   <i name="PARAM1">      0.12340000</i>
   <i name="PARAM2">      1.00000000</i>
   <i name="PARAM3">      0.00000000</i>
  </separator>
  <separator name="model GW" >
   <i type="int" name="MODEL_GW">     0</i>
   <i name="MODEL_EPS0">     10.47241564</i>
   <i name="MODEL_ALPHA">      1.00000000</i>
  </separator>
  <separator name="linear response parameters" >
   <i type="logical" name="LEPSILON"> F  </i>
   <i type="logical" name="LRPA"> F  </i>
   <i type="logical" name="LNABLA"> F  </i>
   <i type="logical" name="LVEL"> F  </i>
   <i type="int" name="KINTER">     0</i>
   <i name="CSHIFT">      0.10000000</i>
   <i name="OMEGAMAX">     -1.00000000</i>
   <i name="DEG_THRESHOLD">      0.00200000</i>
   <i name="RTIME">     -0.10000000</i>
   <i name="WPLASMAI">      0.00000000</i>
   <v name="DFIELD">      0.00000000      0.00000000      0.00000000</v>
   <v name="WPLASMA">      0.00000000      0.00000000      0.00000000      0.00000000      0.00000000      0.00000000      0.00000000      0.00000000      0.00000000</v>
  </separator>
  <separator name="orbital magnetization" >
   <i type="logical" name="NUCIND"> F  </i>
   <v name="MAGPOS">      0.00000000      0.00000000      0.00000000</v>
   <i type="logical" name="LNICSALL"> T  </i>
   <i type="logical" name="ORBITALMAG"> F  </i>
   <i type="logical" name="LMAGBLOCH"> F  </i>
   <i type="logical" name="LCHIMAG"> F  </i>
   <i type="logical" name="LGAUGE"> T  </i>
   <i type="int" name="MAGATOM">     0</i>
   <v name="MAGDIPOL">      0.00000000      0.00000000      0.00000000</v>
   <v name="AVECCONST">      0.00000000      0.00000000      0.00000000</v>
  </separator>
  <separator name="response functions" >
   <i type="logical" name="LADDER"> F  </i>
   <i type="logical" name="LRPAFORCE"> F  </i>
   <i type="logical" name="LFXC"> F  </i>
   <i type="logical" name="LHARTREE"> T  </i>
   <i type="int" name="IBSE">     0</i>
   <v type="int" name="KPOINT">    -1     0     0     0</v>
   <i type="logical" name="LTCTE"> F  </i>
   <i type="logical" name="LTETE"> F  </i>
   <i type="logical" name="LTRIPLET"> F  </i>
   <i type="logical" name="LFXCEPS"> F  </i>
   <i type="logical" name="LFXHEG"> F  </i>
   <i type="int" name="NATURALO">     2</i>
   <i type="logical" name="L2ORDER"> F  </i>
   <i type="logical" name="LMP2LT"> F  </i>
   <i type="logical" name="LUSEW"> F  </i>
   <i name="ENCUTGW">     -2.00000000</i>
   <i name="ENCUTGWSOFT">     -2.00000000</i>
   <i name="ENCUTLF">     -1.00000000</i>
   <i type="int" name="LMAXMP2">    -1</i>
   <i name="SCISSOR">      0.00000000</i>
   <i type="int" name="NOMEGA">     0</i>
   <i type="int" name="NOMEGAR">     0</i>
   <i type="int" name="NBANDSGW">    -1</i>
   <i type="int" name="NBANDSO">    -1</i>
   <i type="int" name="NBANDSV">    -1</i>
   <i type="int" name="NELM">     1</i>
   <i type="int" name="NELMHF">     1</i>
   <i type="int" name="DIM">     3</i>
   <i type="int" name="ANTIRES">     0</i>
   <i name="OMEGAMAX">    -30.00000000</i>
   <i name="OMEGAMIN">    -30.00000000</i>
   <i name="OMEGATL">   -200.00000000</i>
   <i type="int" name="OMEGAGRID">   140</i>
   <i name="CSHIFT">     -0.10000000</i>
   <i type="logical" name="SELFENERGY"> F  </i>
   <i type="logical" name="LSPECTRAL"> F  </i>
   <i type="logical" name="LSPECTRALGW"> F  </i>
   <i type="logical" name="LSINGLES"> F  </i>
   <i type="logical" name="LFERMIGW"> F  </i>
   <i type="logical" name="ODDONLYGW"> F  </i>
   <i type="logical" name="EVENONLYGW"> F  </i>
   <i type="int" name="NKREDLFX">     1</i>
   <i type="int" name="NKREDLFY">     1</i>
   <i type="int" name="NKREDLFZ">     1</i>
   <i type="int" name="MAXMEM">  2800</i>
   <i type="int" name="TELESCOPE">     0</i>
   <i type="int" name="TAUPAR">     1</i>
   <i type="int" name="OMEGAPAR">    -1</i>
   <i name="LAMBDA">      1.00000000</i>
  </separator>
  <separator name="External order field" >
   <i name="OFIELD_KAPPA">      0.00000000</i>
   <v name="OFIELD_K">      0.00000000      0.00000000      0.00000000</v>
   <i name="OFIELD_Q6_NEAR">      0.00000000</i>
   <i name="OFIELD_Q6_FAR">      0.00000000</i>
   <i name="OFIELD_A">      0.00000000</i>
  </separator>
  <separator name="solvation model" >
   <i type="logical" name="LSOL"> F  </i>
  </separator>
 </parameters>
 <atominfo>
  <atoms>      60 </atoms>
  <types>       2 </types>
  <array name="atoms" >
   <dimension dim="1">ion</dimension>
   <field type="string">element</field>
   <field type="int">atomtype</field>
   <set>
    <rc><c>Si</c><c>   1</c></rc>
    <rc><c>Si</c><c>   1</c></rc>
    <rc><c>Si</c><c>   1</c></rc>
    <rc><c>Si</c><c>   1</c></rc>
    <rc><c>Si</c><c>   1</c></rc>
    <rc><c>Si</c><c>   1</c></rc>
    <rc><c>Si</c><c>   1</c></rc>
    <rc><c>Si</c><c>   1</c></rc>
    <rc><c>Si</c><c>   1</c></rc>
    <rc><c>Si</c><c>   1</c></rc>
    <rc><c>Si</c><c>   1</c></rc>
    <rc><c>Si</c><c>   1</c></rc>
    <rc><c>Si</c><c>   1</c></rc>
    <rc><c>Si</c><c>   1</c></rc>
    <rc><c>Si</c><c>   1</c></rc>
    <rc><c>Si</c><c>   1</c></rc>
    <rc><c>Si</c><c>   1</c></rc>
    <rc><c>Si</c><c>   1</c></rc>
    <rc><c>Si</c><c>   1</c></rc>
    <rc><c>Si</c><c>   1</c></rc>
    <rc><c>O </c><c>   2</c></rc>
    <rc><c>O </c><c>   2</c></rc>
    <rc><c>O </c><c>   2</c></rc>
    <rc><c>O </c><c>   2</c></rc>
    <rc><c>O </c><c>   2</c></rc>
    <rc><c>O </c><c>   2</c></rc>
    <rc><c>O </c><c>   2</c></rc>
    <rc><c>O </c><c>   2</c></rc>
    <rc><c>O </c><c>   2</c></rc>
    <rc><c>O </c><c>   2</c></rc>
    <rc><c>O </c><c>   2</c></rc>
    <rc><c>O </c><c>   2</c></rc>
    <rc><c>O </c><c>   2</c></rc>
    <rc><c>O </c><c>   2</c></rc>
    <rc><c>O </c><c>   2</c></rc>
    <rc><c>O </c><c>   2</c></rc>
    <rc><c>O </c><c>   2</c></rc>
    <rc><c>O </c><c>   2</c></rc>
    <rc><c>O </c><c>   2</c></rc>
    <rc><c>O </c><c>   2</c></rc>
    <rc><c>O </c><c>   2</c></rc>
    <rc><c>O </c><c>   2</c></rc>
    <rc><c>O </c><c>   2</c></rc>
    <rc><c>O </c><c>   2</c></rc>
    <rc><c>O </c><c>   2</c></rc>
    <rc><c>O </c><c>   2</c></rc>
    <rc><c>O </c><c>   2</c></rc>
    <rc><c>O </c><c>   2</c></rc>
    <rc><c>O </c><c>   2</c></rc>
    <rc><c>O </c><c>   2</c></rc>
    <rc><c>O </c><c>   2</c></rc>
    <rc><c>O </c><c>   2</c></rc>
    <rc><c>O </c><c>   2</c></rc>
    <rc><c>O </c><c>   2</c></rc>
    <rc><c>O </c><c>   2</c></rc>
    <rc><c>O </c><c>   2</c></rc>
    <rc><c>O </c><c>   2</c></rc>
    <rc><c>O </c><c>   2</c></rc>
    <rc><c>O </c><c>   2</c></rc>
    <rc><c>O </c><c>   2</c></rc>
   </set>
  </array>
  <array name="atomtypes" >
   <dimension dim="1">type</dimension>
   <field type="int">atomspertype</field>
   <field type="string">element</field>
   <field>mass</field>
   <field>valence</field>
   <field type="string">pseudopotential</field>
   <set>
    <rc><c>  20</c><c>Si</c><c>     28.08500000</c><c>      4.00000000</c><c>  PAW_PBE Si 05Jan2001                  </c></rc>
    <rc><c>  40</c><c>O </c><c>     16.00000000</c><c>      6.00000000</c><c>  PAW_PBE O 08Apr2002                   </c></rc>
   </set>
  </array>
 </atominfo>
 <structure name="initialpos" >
  <crystal>
   <varray name="basis" >
    <v>       8.67400000       0.00000000       0.00000000 </v>
    <v>      -0.00000000       8.67400000       0.00000000 </v>
    <v>       0.00000000       0.00000000      13.91900000 </v>
   </varray>
   <i name="volume">   1047.24156364 </i>
   <varray name="rec_basis" >
    <v>       0.11528706       0.00000000       0.00000000 </v>
    <v>       0.00000000       0.11528706       0.00000000 </v>
    <v>      -0.00000000      -0.00000000       0.07184424 </v>
   </varray>
  </crystal>
  <varray name="positions" >
   <v>       0.25340000       0.43080000       0.11140000 </v>
   <v>       0.56920000       0.25340000       0.11140000 </v>
   <v>       0.74660000       0.56920000       0.11140000 </v>
   <v>       0.43080000       0.74660000       0.11140000 </v>
   <v>       0.74660000       0.43080000       0.61140000 </v>
   <v>       0.43080000       0.25340000       0.61140000 </v>
   <v>       0.25340000       0.56920000       0.61140000 </v>
   <v>       0.56920000       0.74660000       0.61140000 </v>
   <v>       0.74660000       0.56920000       0.88860000 </v>
   <v>       0.43080000       0.74660000       0.88860000 </v>
   <v>       0.25340000       0.43080000       0.88860000 </v>
   <v>       0.56920000       0.25340000       0.88860000 </v>
   <v>       0.25340000       0.56920000       0.38860000 </v>
   <v>       0.56920000       0.74660000       0.38860000 </v>
   <v>       0.74660000       0.43080000       0.38860000 </v>
   <v>       0.43080000       0.25340000       0.38860000 </v>
   <v>       0.00000000       0.50000000       0.25000000 </v>
   <v>       0.50000000       0.00000000       0.25000000 </v>
   <v>       0.00000000       0.50000000       0.75000000 </v>
   <v>       0.50000000       0.00000000       0.75000000 </v>
   <v>       0.10890000       0.60740000       0.31780000 </v>
   <v>       0.39260000       0.10890000       0.31780000 </v>
   <v>       0.89110000       0.39260000       0.31780000 </v>
   <v>       0.60740000       0.89110000       0.31780000 </v>
   <v>       0.89110000       0.60740000       0.81780000 </v>
   <v>       0.60740000       0.10890000       0.81780000 </v>
   <v>       0.10890000       0.39260000       0.81780000 </v>
   <v>       0.39260000       0.89110000       0.81780000 </v>
   <v>       0.89110000       0.39260000       0.68220000 </v>
   <v>       0.60740000       0.89110000       0.68220000 </v>
   <v>       0.10890000       0.60740000       0.68220000 </v>
   <v>       0.39260000       0.10890000       0.68220000 </v>
   <v>       0.10890000       0.39260000       0.18220000 </v>
   <v>       0.39260000       0.89110000       0.18220000 </v>
   <v>       0.89110000       0.60740000       0.18220000 </v>
   <v>       0.60740000       0.10890000       0.18220000 </v>
   <v>       0.19850000       0.41550000       0.00000000 </v>
   <v>       0.58450000       0.19850000       0.00000000 </v>
   <v>       0.80150000       0.58450000       0.00000000 </v>
   <v>       0.41550000       0.80150000       0.00000000 </v>
   <v>       0.80150000       0.41550000       0.50000000 </v>
   <v>       0.41550000       0.19850000       0.50000000 </v>
   <v>       0.19850000       0.58450000       0.50000000 </v>
   <v>       0.58450000       0.80150000       0.50000000 </v>
   <v>       0.39380000       0.31100000       0.13210000 </v>
   <v>       0.68900000       0.39380000       0.13210000 </v>
   <v>       0.60620000       0.68900000       0.13210000 </v>
   <v>       0.31100000       0.60620000       0.13210000 </v>
   <v>       0.60620000       0.31100000       0.63210000 </v>
   <v>       0.31100000       0.39380000       0.63210000 </v>
   <v>       0.39380000       0.68900000       0.63210000 </v>
   <v>       0.68900000       0.60620000       0.63210000 </v>
   <v>       0.60620000       0.68900000       0.86790000 </v>
   <v>       0.31100000       0.60620000       0.86790000 </v>
   <v>       0.39380000       0.31100000       0.86790000 </v>
   <v>       0.68900000       0.39380000       0.86790000 </v>
   <v>       0.39380000       0.68900000       0.36790000 </v>
   <v>       0.68900000       0.60620000       0.36790000 </v>
   <v>       0.60620000       0.31100000       0.36790000 </v>
   <v>       0.31100000       0.39380000       0.36790000 </v>
  </varray>
 </structure>
 <calculation>
  <scstep>
   <time name="diag">    0.04    0.04</time>
   <time name="diis">    0.10    0.10</time>
   <time name="orth">    0.01    0.01</time>
   <time name="total">    0.18    0.18</time>
   <energy>
    <i name="alphaZ">    334.49511005 </i>
    <i name="ewald">  -5230.49655656 </i>
    <i name="hartreedc"> -12612.56090102 </i>
    <i name="XCdc">    939.44707217 </i>
    <i name="pawpsdc">  15624.45506791 </i>
    <i name="pawaedc"> -15344.53625805 </i>
    <i name="eentropy">     -0.01082890 </i>
    <i name="bandstr">   1790.53838768 </i>
    <i name="atom">  19351.84276599 </i>
    <i name="e_fr_energy">   4853.17385927 </i>
    <i name="e_wo_entrp">   4853.18468817 </i>
    <i name="e_0_energy">   4853.17927372 </i>
   </energy>
  </scstep>
  <scstep>
   <time name="diag">    0.03    0.03</time>
   <time name="diis">    0.10    0.10</time>
   <time name="orth">    0.01    0.01</time>
   <time name="total">    0.14    0.14</time>
   <energy>
    <i name="e_fr_energy">   1630.65022154 </i>
    <i name="e_wo_entrp">   1630.65054140 </i>
    <i name="e_0_energy">   1630.65038147 </i>
   </energy>
  </scstep>
  <scstep>
   <time name="diag">    0.03    0.03</time>
   <time name="diis">    0.10    0.10</time>
   <time name="orth">    0.01    0.01</time>
   <time name="total">    0.14    0.14</time>
   <energy>
    <i name="e_fr_energy">    381.12963248 </i>
    <i name="e_wo_entrp">    381.12963248 </i>
    <i name="e_0_energy">    381.12963248 </i>
   </energy>
  </scstep>
  <scstep>
   <time name="diag">    0.03    0.03</time>
   <time name="diis">    0.10    0.10</time>
   <time name="orth">    0.01    0.01</time>
   <time name="total">    0.14    0.14</time>
   <energy>
    <i name="e_fr_energy">   -222.53518274 </i>
    <i name="e_wo_entrp">   -222.53518274 </i>
    <i name="e_0_energy">   -222.53518274 </i>
   </energy>
  </scstep>
  <scstep>
   <time name="diag">    0.03    0.03</time>
   <time name="diis">    0.10    0.10</time>
   <time name="orth">    0.01    0.01</time>
   <time name="total">    0.14    0.14</time>
   <energy>
    <i name="e_fr_energy">   -438.69700535 </i>
    <i name="e_wo_entrp">   -438.69700535 </i>
    <i name="e_0_energy">   -438.69700535 </i>
   </energy>
  </scstep>
  <scstep>
   <time name="diag">    0.03    0.03</time>
   <time name="diis">    0.10    0.10</time>
   <time name="orth">    0.01    0.01</time>
   <time name="total">    0.14    0.14</time>
   <energy>
    <i name="e_fr_energy">   -504.52568247 </i>
    <i name="e_wo_entrp">   -504.52568247 </i>
    <i name="e_0_energy">   -504.52568247 </i>
   </energy>
  </scstep>
  <scstep>
   <time name="diag">    0.03    0.03</time>
   <time name="diis">    0.10    0.10</time>
   <time name="orth">    0.01    0.01</time>
   <time name="total">    0.14    0.14</time>
   <energy>
    <i name="e_fr_energy">   -524.79039879 </i>
    <i name="e_wo_entrp">   -524.79039879 </i>
    <i name="e_0_energy">   -524.79039879 </i>
   </energy>
  </scstep>
  <scstep>
   <time name="diag">    0.03    0.03</time>
   <time name="diis">    0.10    0.10</time>
   <time name="orth">    0.01    0.01</time>
   <time name="total">    0.14    0.14</time>
   <energy>
    <i name="e_fr_energy">   -531.69811104 </i>
    <i name="e_wo_entrp">   -531.69811104 </i>
    <i name="e_0_energy">   -531.69811104 </i>
   </energy>
  </scstep>
  <scstep>
   <time name="diag">    0.03    0.03</time>
   <time name="diis">    0.21    0.21</time>
   <time name="orth">    0.01    0.01</time>
   <time name="total">    0.25    0.25</time>
   <energy>
    <i name="e_fr_energy">   -535.12047651 </i>
    <i name="e_wo_entrp">   -535.12047651 </i>
    <i name="e_0_energy">   -535.12047651 </i>
   </energy>
  </scstep>
  <scstep>
   <time name="diag">    0.03    0.03</time>
   <time name="diis">    0.24    0.24</time>
   <time name="orth">    0.01    0.01</time>
   <time name="total">    0.28    0.28</time>
   <energy>
    <i name="e_fr_energy">   -535.55929025 </i>
    <i name="e_wo_entrp">   -535.55929025 </i>
    <i name="e_0_energy">   -535.55929025 </i>
   </energy>
  </scstep>
  <scstep>
   <time name="diag">    0.03    0.03</time>
   <time name="diis">    0.22    0.22</time>
   <time name="orth">    0.01    0.01</time>
   <time name="total">    0.26    0.26</time>
   <energy>
    <i name="e_fr_energy">   -535.56429186 </i>
    <i name="e_wo_entrp">   -535.56429186 </i>
    <i name="e_0_energy">   -535.56429186 </i>
   </energy>
  </scstep>
  <scstep>
   <time name="diag">    0.03    0.03</time>
   <time name="diis">    0.19    0.19</time>
   <time name="orth">    0.01    0.01</time>
   <time name="total">    0.26    0.26</time>
   <energy>
    <i name="e_fr_energy">   -535.56701053 </i>
    <i name="e_wo_entrp">   -535.56701053 </i>
    <i name="e_0_energy">   -535.56701053 </i>
   </energy>
  </scstep>
  <scstep>
   <time name="diag">    0.03    0.03</time>
   <time name="diis">    0.20    0.20</time>
   <time name="orth">    0.01    0.01</time>
   <time name="total">    0.29    0.29</time>
   <energy>
    <i name="e_fr_energy">   -473.85126445 </i>
    <i name="e_wo_entrp">   -473.85126445 </i>
    <i name="e_0_energy">   -473.85126445 </i>
   </energy>
  </scstep>
  <scstep>
   <time name="diag">    0.03    0.03</time>
   <time name="diis">    0.21    0.21</time>
   <time name="orth">    0.01    0.01</time>
   <time name="total">    0.30    0.30</time>
   <energy>
    <i name="e_fr_energy">   -473.74873066 </i>
    <i name="e_wo_entrp">   -473.74873066 </i>
    <i name="e_0_energy">   -473.74873066 </i>
   </energy>
  </scstep>
  <scstep>
   <time name="diag">    0.03    0.03</time>
   <time name="diis">    0.21    0.21</time>
   <time name="orth">    0.01    0.01</time>
   <time name="total">    0.30    0.30</time>
   <energy>
    <i name="e_fr_energy">   -473.64413088 </i>
    <i name="e_wo_entrp">   -473.64413088 </i>
    <i name="e_0_energy">   -473.64413088 </i>
   </energy>
  </scstep>
  <scstep>
   <time name="diag">    0.03    0.03</time>
   <time name="diis">    0.21    0.21</time>
   <time name="orth">    0.01    0.01</time>
   <time name="total">    0.30    0.30</time>
   <energy>
    <i name="e_fr_energy">   -473.62743874 </i>
    <i name="e_wo_entrp">   -473.62743874 </i>
    <i name="e_0_energy">   -473.62743874 </i>
   </energy>
  </scstep>
  <scstep>
   <time name="diag">    0.03    0.03</time>
   <time name="diis">    0.21    0.21</time>
   <time name="orth">    0.01    0.01</time>
   <time name="total">    0.30    0.30</time>
   <energy>
    <i name="e_fr_energy">   -473.63570895 </i>
    <i name="e_wo_entrp">   -473.63570895 </i>
    <i name="e_0_energy">   -473.63570895 </i>
   </energy>
  </scstep>
  <scstep>
   <time name="diag">    0.03    0.03</time>
   <time name="diis">    0.21    0.21</time>
   <time name="orth">    0.01    0.01</time>
   <time name="total">    0.30    0.30</time>
   <energy>
    <i name="e_fr_energy">   -473.63461726 </i>
    <i name="e_wo_entrp">   -473.63461726 </i>
    <i name="e_0_energy">   -473.63461726 </i>
   </energy>
  </scstep>
  <scstep>
   <time name="diag">    0.03    0.03</time>
   <time name="diis">    0.19    0.19</time>
   <time name="orth">    0.01    0.01</time>
   <time name="total">    0.29    0.29</time>
   <energy>
    <i name="e_fr_energy">   -473.63828744 </i>
    <i name="e_wo_entrp">   -473.63828744 </i>
    <i name="e_0_energy">   -473.63828744 </i>
   </energy>
  </scstep>
  <scstep>
   <time name="diag">    0.03    0.03</time>
   <time name="diis">    0.17    0.17</time>
   <time name="orth">    0.01    0.01</time>
   <time name="total">    0.26    0.26</time>
   <energy>
    <i name="e_fr_energy">   -473.63869816 </i>
    <i name="e_wo_entrp">   -473.63869816 </i>
    <i name="e_0_energy">   -473.63869816 </i>
   </energy>
  </scstep>
  <scstep>
   <time name="diag">    0.03    0.03</time>
   <time name="diis">    0.14    0.14</time>
   <time name="orth">    0.01    0.01</time>
   <time name="total">    0.23    0.23</time>
   <energy>
    <i name="e_fr_energy">   -473.63881765 </i>
    <i name="e_wo_entrp">   -473.63881765 </i>
    <i name="e_0_energy">   -473.63881765 </i>
   </energy>
  </scstep>
  <scstep>
   <time name="diag">    0.03    0.03</time>
   <time name="diis">    0.14    0.14</time>
   <time name="orth">    0.01    0.01</time>
   <time name="total">    0.20    0.20</time>
   <energy>
    <i name="alphaZ">    334.49511005 </i>
    <i name="ewald">  -5230.49655656 </i>
    <i name="hartreedc"> -13554.92975746 </i>
    <i name="XCdc">    998.84920547 </i>
    <i name="pawpsdc">  50688.94979747 </i>
    <i name="pawaedc"> -50422.47426410 </i>
    <i name="eentropy">     -0.00000000 </i>
    <i name="bandstr">  -2639.87512332 </i>
    <i name="atom">  19351.84276599 </i>
    <i name="e_fr_energy">   -473.63882246 </i>
    <i name="e_wo_entrp">   -473.63882246 </i>
    <i name="e_0_energy">   -473.63882246 </i>
   </energy>
  </scstep>
  <structure>
   <crystal>
    <varray name="basis" >
     <v>       8.67400000       0.00000000       0.00000000 </v>
     <v>      -0.00000000       8.67400000       0.00000000 </v>
     <v>       0.00000000       0.00000000      13.91900000 </v>
    </varray>
    <i name="volume">   1047.24156364 </i>
    <varray name="rec_basis" >
     <v>       0.11528706       0.00000000       0.00000000 </v>
     <v>       0.00000000       0.11528706       0.00000000 </v>
     <v>      -0.00000000      -0.00000000       0.07184424 </v>
    </varray>
   </crystal>
   <varray name="positions" >
    <v>       0.25340000       0.43080000       0.11140000 </v>
    <v>       0.56920000       0.25340000       0.11140000 </v>
    <v>       0.74660000       0.56920000       0.11140000 </v>
    <v>       0.43080000       0.74660000       0.11140000 </v>
    <v>       0.74660000       0.43080000       0.61140000 </v>
    <v>       0.43080000       0.25340000       0.61140000 </v>
    <v>       0.25340000       0.56920000       0.61140000 </v>
    <v>       0.56920000       0.74660000       0.61140000 </v>
    <v>       0.74660000       0.56920000       0.88860000 </v>
    <v>       0.43080000       0.74660000       0.88860000 </v>
    <v>       0.25340000       0.43080000       0.88860000 </v>
    <v>       0.56920000       0.25340000       0.88860000 </v>
    <v>       0.25340000       0.56920000       0.38860000 </v>
    <v>       0.56920000       0.74660000       0.38860000 </v>
    <v>       0.74660000       0.43080000       0.38860000 </v>
    <v>       0.43080000       0.25340000       0.38860000 </v>
    <v>       0.00000000       0.50000000       0.25000000 </v>
    <v>       0.50000000       0.00000000       0.25000000 </v>
    <v>       0.00000000       0.50000000       0.75000000 </v>
    <v>       0.50000000       0.00000000       0.75000000 </v>
    <v>       0.10890000       0.60740000       0.31780000 </v>
    <v>       0.39260000       0.10890000       0.31780000 </v>
    <v>       0.89110000       0.39260000       0.31780000 </v>
    <v>       0.60740000       0.89110000       0.31780000 </v>
    <v>       0.89110000       0.60740000       0.81780000 </v>
    <v>       0.60740000       0.10890000       0.81780000 </v>
    <v>       0.10890000       0.39260000       0.81780000 </v>
    <v>       0.39260000       0.89110000       0.81780000 </v>
    <v>       0.89110000       0.39260000       0.68220000 </v>
    <v>       0.60740000       0.89110000       0.68220000 </v>
    <v>       0.10890000       0.60740000       0.68220000 </v>
    <v>       0.39260000       0.10890000       0.68220000 </v>
    <v>       0.10890000       0.39260000       0.18220000 </v>
    <v>       0.39260000       0.89110000       0.18220000 </v>
    <v>       0.89110000       0.60740000       0.18220000 </v>
    <v>       0.60740000       0.10890000       0.18220000 </v>
    <v>       0.19850000       0.41550000       0.00000000 </v>
    <v>       0.58450000       0.19850000       0.00000000 </v>
    <v>       0.80150000       0.58450000       0.00000000 </v>
    <v>       0.41550000       0.80150000       0.00000000 </v>
    <v>       0.80150000       0.41550000       0.50000000 </v>
    <v>       0.41550000       0.19850000       0.50000000 </v>
    <v>       0.19850000       0.58450000       0.50000000 </v>
    <v>       0.58450000       0.80150000       0.50000000 </v>
    <v>       0.39380000       0.31100000       0.13210000 </v>
    <v>       0.68900000       0.39380000       0.13210000 </v>
    <v>       0.60620000       0.68900000       0.13210000 </v>
    <v>       0.31100000       0.60620000       0.13210000 </v>
    <v>       0.60620000       0.31100000       0.63210000 </v>
    <v>       0.31100000       0.39380000       0.63210000 </v>
    <v>       0.39380000       0.68900000       0.63210000 </v>
    <v>       0.68900000       0.60620000       0.63210000 </v>
    <v>       0.60620000       0.68900000       0.86790000 </v>
    <v>       0.31100000       0.60620000       0.86790000 </v>
    <v>       0.39380000       0.31100000       0.86790000 </v>
    <v>       0.68900000       0.39380000       0.86790000 </v>
    <v>       0.39380000       0.68900000       0.36790000 </v>
    <v>       0.68900000       0.60620000       0.36790000 </v>
    <v>       0.60620000       0.31100000       0.36790000 </v>
    <v>       0.31100000       0.39380000       0.36790000 </v>
   </varray>
  </structure>
  <varray name="forces" >
   <v>      -0.06488232      -0.13682652      -0.04818827 </v>
   <v>       0.13682652      -0.06488232      -0.04818827 </v>
   <v>       0.06488232       0.13682652      -0.04818827 </v>
   <v>      -0.13682652       0.06488232      -0.04818827 </v>
   <v>       0.06488232      -0.13682652      -0.04818827 </v>
   <v>      -0.13682652      -0.06488232      -0.04818827 </v>
   <v>      -0.06488232       0.13682652      -0.04818827 </v>
   <v>       0.13682652       0.06488232      -0.04818827 </v>
   <v>       0.06488232       0.13682652       0.04818827 </v>
   <v>      -0.13682652       0.06488232       0.04818827 </v>
   <v>      -0.06488232      -0.13682652       0.04818827 </v>
   <v>       0.13682652      -0.06488232       0.04818827 </v>
   <v>      -0.06488232       0.13682652       0.04818827 </v>
   <v>       0.13682652       0.06488232       0.04818827 </v>
   <v>       0.06488232      -0.13682652       0.04818827 </v>
   <v>      -0.13682652      -0.06488232       0.04818827 </v>
   <v>       0.00000000      -0.00000000      -0.00000000 </v>
   <v>       0.00000000      -0.00000000      -0.00000000 </v>
   <v>       0.00000000      -0.00000000      -0.00000000 </v>
   <v>       0.00000000      -0.00000000      -0.00000000 </v>
   <v>       0.17676221       0.15215618       0.24491516 </v>
   <v>      -0.15215618       0.17676221       0.24491516 </v>
   <v>      -0.17676221      -0.15215618       0.24491516 </v>
   <v>       0.15215618      -0.17676221       0.24491516 </v>
   <v>      -0.17676221       0.15215618       0.24491516 </v>
   <v>       0.15215618       0.17676221       0.24491516 </v>
   <v>       0.17676221      -0.15215618       0.24491516 </v>
   <v>      -0.15215618      -0.17676221       0.24491516 </v>
   <v>      -0.17676221      -0.15215618      -0.24491516 </v>
   <v>       0.15215618      -0.17676221      -0.24491516 </v>
   <v>       0.17676221       0.15215618      -0.24491516 </v>
   <v>      -0.15215618       0.17676221      -0.24491516 </v>
   <v>       0.17676221      -0.15215618      -0.24491516 </v>
   <v>      -0.15215618      -0.17676221      -0.24491516 </v>
   <v>      -0.17676221       0.15215618      -0.24491516 </v>
   <v>       0.15215618       0.17676221      -0.24491516 </v>
   <v>      -0.09146170      -0.09517987      -0.00000000 </v>
   <v>       0.09517987      -0.09146170      -0.00000000 </v>
   <v>       0.09146170       0.09517987       0.00000000 </v>
   <v>      -0.09517987       0.09146170      -0.00000000 </v>
   <v>       0.09146170      -0.09517987      -0.00000000 </v>
   <v>      -0.09517987      -0.09146170      -0.00000000 </v>
   <v>      -0.09146170       0.09517987      -0.00000000 </v>
   <v>       0.09517987       0.09146170       0.00000000 </v>
   <v>      -0.18288239       0.04077428       0.03587089 </v>
   <v>      -0.04077428      -0.18288239       0.03587089 </v>
   <v>       0.18288239      -0.04077428       0.03587089 </v>
   <v>       0.04077428       0.18288239       0.03587089 </v>
   <v>       0.18288239       0.04077428       0.03587089 </v>
   <v>       0.04077428      -0.18288239       0.03587089 </v>
   <v>      -0.18288239      -0.04077428       0.03587089 </v>
   <v>      -0.04077428       0.18288239       0.03587089 </v>
   <v>       0.18288239      -0.04077428      -0.03587089 </v>
   <v>       0.04077428       0.18288239      -0.03587089 </v>
   <v>      -0.18288239       0.04077428      -0.03587089 </v>
   <v>      -0.04077428      -0.18288239      -0.03587089 </v>
   <v>      -0.18288239      -0.04077428      -0.03587089 </v>
   <v>      -0.04077428       0.18288239      -0.03587089 </v>
   <v>       0.18288239       0.04077428      -0.03587089 </v>
   <v>       0.04077428      -0.18288239      -0.03587089 </v>
  </varray>
  <varray name="stress" >
   <v>     -31.37436351       0.00000000      -0.00000000 </v>
   <v>       0.00000000     -31.37436351      -0.00000000 </v>
   <v>      -0.00000000      -0.00000000     -28.31143408 </v>
  </varray>
  <energy>
   <i name="e_fr_energy">   -473.63882246 </i>
   <i name="e_wo_entrp">   -473.63882246 </i>
   <i name="e_0_energy">     -0.00000000 </i>
  </energy>
  <time name="totalsc">    7.02    7.02</time>
  <eigenvalues>
   <array>
    <dimension dim="1">band</dimension>
    <dimension dim="2">kpoint</dimension>
    <dimension dim="3">spin</dimension>
    <field>eigene</field>
    <field>occ</field>
    <set>
     <set comment="spin 1">
      <set comment="kpoint 1">
       <r>  -20.7815    1.0000 </r>
       <r>  -20.5284    1.0000 </r>
       <r>  -20.4921    1.0000 </r>
       <r>  -20.2124    1.0000 </r>
       <r>  -20.1058    1.0000 </r>
       <r>  -20.1058    1.0000 </r>
       <r>  -20.1052    1.0000 </r>
       <r>  -20.0598    1.0000 </r>
       <r>  -20.0272    1.0000 </r>
       <r>  -20.0272    1.0000 </r>
       <r>  -19.6506    1.0000 </r>
       <r>  -19.6506    1.0000 </r>
       <r>  -19.6185    1.0000 </r>
       <r>  -19.5607    1.0000 </r>
       <r>  -19.5076    1.0000 </r>
       <r>  -19.5076    1.0000 </r>
       <r>  -19.4391    1.0000 </r>
       <r>  -19.1350    1.0000 </r>
       <r>  -19.0543    1.0000 </r>
       <r>  -18.7735    1.0000 </r>
       <r>  -18.7735    1.0000 </r>
       <r>  -18.7615    1.0000 </r>
       <r>  -18.7582    1.0000 </r>
       <r>  -18.7463    1.0000 </r>
       <r>  -18.7291    1.0000 </r>
       <r>  -18.7234    1.0000 </r>
       <r>  -18.7209    1.0000 </r>
       <r>  -18.7209    1.0000 </r>
       <r>  -18.7194    1.0000 </r>
       <r>  -18.7067    1.0000 </r>
       <r>  -18.6982    1.0000 </r>
       <r>  -18.6942    1.0000 </r>
       <r>  -18.6926    1.0000 </r>
       <r>  -18.6926    1.0000 </r>
       <r>  -18.6701    1.0000 </r>
       <r>  -18.6701    1.0000 </r>
       <r>  -18.6541    1.0000 </r>
       <r>  -18.6541    1.0000 </r>
       <r>  -18.6487    1.0000 </r>
       <r>  -18.6487    1.0000 </r>
       <r>  -10.7295    1.0000 </r>
       <r>  -10.1951    1.0000 </r>
       <r>   -9.8981    1.0000 </r>
       <r>   -9.3708    1.0000 </r>
       <r>   -9.3708    1.0000 </r>
       <r>   -9.3557    1.0000 </r>
       <r>   -9.2399    1.0000 </r>
       <r>   -9.1886    1.0000 </r>
       <r>   -9.1886    1.0000 </r>
       <r>   -8.9454    1.0000 </r>
       <r>   -8.5012    1.0000 </r>
       <r>   -8.5012    1.0000 </r>
       <r>   -8.2640    1.0000 </r>
       <r>   -8.2640    1.0000 </r>
       <r>   -8.1702    1.0000 </r>
       <r>   -7.8254    1.0000 </r>
       <r>   -7.8054    1.0000 </r>
       <r>   -7.4336    1.0000 </r>
       <r>   -7.0911    1.0000 </r>
       <r>   -6.9410    1.0000 </r>
       <r>   -6.9410    1.0000 </r>
       <r>   -6.8771    1.0000 </r>
       <r>   -6.8523    1.0000 </r>
       <r>   -6.8486    1.0000 </r>
       <r>   -6.8486    1.0000 </r>
       <r>   -6.7908    1.0000 </r>
       <r>   -6.7908    1.0000 </r>
       <r>   -6.6582    1.0000 </r>
       <r>   -6.6413    1.0000 </r>
       <r>   -6.5841    1.0000 </r>
       <r>   -6.5029    1.0000 </r>
       <r>   -6.5029    1.0000 </r>
       <r>   -6.4628    1.0000 </r>
       <r>   -6.1959    1.0000 </r>
       <r>   -6.1959    1.0000 </r>
       <r>   -6.0696    1.0000 </r>
       <r>   -6.0441    1.0000 </r>
       <r>   -5.9528    1.0000 </r>
       <r>   -5.7493    1.0000 </r>
       <r>   -5.7493    1.0000 </r>
       <r>   -5.2984    1.0000 </r>
       <r>   -5.1337    1.0000 </r>
       <r>   -4.7486    1.0000 </r>
       <r>   -4.7486    1.0000 </r>
       <r>   -4.5962    1.0000 </r>
       <r>   -4.5852    1.0000 </r>
       <r>   -4.5754    1.0000 </r>
       <r>   -4.3923    1.0000 </r>
       <r>   -4.3712    1.0000 </r>
       <r>   -4.3712    1.0000 </r>
       <r>   -4.3639    1.0000 </r>
       <r>   -4.3422    1.0000 </r>
       <r>   -4.3422    1.0000 </r>
       <r>   -4.2857    1.0000 </r>
       <r>   -4.2407    1.0000 </r>
       <r>   -4.1839    1.0000 </r>
       <r>   -4.0893    1.0000 </r>
       <r>   -4.0893    1.0000 </r>
       <r>   -3.9587    1.0000 </r>
       <r>   -3.9356    1.0000 </r>
       <r>   -3.9184    1.0000 </r>
       <r>   -3.8491    1.0000 </r>
       <r>   -3.6052    1.0000 </r>
       <r>   -3.5934    1.0000 </r>
       <r>   -3.5718    1.0000 </r>
       <r>   -3.4929    1.0000 </r>
       <r>   -3.4297    1.0000 </r>
       <r>   -3.3308    1.0000 </r>
       <r>   -3.3308    1.0000 </r>
       <r>   -3.3196    1.0000 </r>
       <r>   -3.3196    1.0000 </r>
       <r>   -3.2649    1.0000 </r>
       <r>   -3.1327    1.0000 </r>
       <r>   -3.1327    1.0000 </r>
       <r>   -3.0359    1.0000 </r>
       <r>   -3.0359    1.0000 </r>
       <r>   -3.0347    1.0000 </r>
       <r>   -2.9431    1.0000 </r>
       <r>   -2.9431    1.0000 </r>
       <r>   -2.9021    1.0000 </r>
       <r>   -2.8895    1.0000 </r>
       <r>   -2.8857    1.0000 </r>
       <r>   -2.8344    1.0000 </r>
       <r>   -2.8344    1.0000 </r>
       <r>   -2.7944    1.0000 </r>
       <r>   -2.7642    1.0000 </r>
       <r>   -2.7582    1.0000 </r>
       <r>   -2.7203    1.0000 </r>
       <r>   -2.7203    1.0000 </r>
       <r>   -2.7045    1.0000 </r>
       <r>   -2.6799    1.0000 </r>
       <r>   -2.6799    1.0000 </r>
       <r>   -2.6249    1.0000 </r>
       <r>   -2.6249    1.0000 </r>
       <r>   -2.6010    1.0000 </r>
       <r>   -2.6010    1.0000 </r>
       <r>   -2.5222    1.0000 </r>
       <r>   -2.4008    1.0000 </r>
       <r>   -2.4008    1.0000 </r>
       <r>   -2.3501    1.0000 </r>
       <r>   -2.3501    1.0000 </r>
       <r>   -2.3477    1.0000 </r>
       <r>   -2.3163    1.0000 </r>
       <r>   -2.2679    1.0000 </r>
       <r>   -2.1399    1.0000 </r>
       <r>   -2.1399    1.0000 </r>
       <r>   -2.1268    1.0000 </r>
       <r>   -1.9541    1.0000 </r>
       <r>   -1.9125    1.0000 </r>
       <r>   -1.8964    1.0000 </r>
       <r>   -1.8964    1.0000 </r>
       <r>   -1.8917    1.0000 </r>
       <r>   -1.7824    1.0000 </r>
       <r>   -1.7469    1.0000 </r>
       <r>   -1.5928    1.0000 </r>
       <r>   -1.5928    1.0000 </r>
       <r>   -1.5055    1.0000 </r>
       <r>   -1.5055    1.0000 </r>
       <r>   -1.4191    1.0000 </r>
       <r>   -1.3585    1.0000 </r>
       <r>    4.2149    0.0000 </r>
       <r>    5.1977    0.0000 </r>
       <r>    5.5657    0.0000 </r>
       <r>    6.2714    0.0000 </r>
       <r>    6.5185    0.0000 </r>
       <r>    6.5603    0.0000 </r>
       <r>    6.7571    0.0000 </r>
       <r>    6.7572    0.0000 </r>
       <r>    6.9495    0.0000 </r>
       <r>    7.1330    0.0000 </r>
       <r>    7.1507    0.0000 </r>
       <r>    7.1675    0.0000 </r>
       <r>    7.1679    0.0000 </r>
       <r>    7.2259    0.0000 </r>
       <r>    7.2264    0.0000 </r>
       <r>    7.3588    0.0000 </r>
       <r>    7.6217    0.0000 </r>
       <r>    7.6997    0.0000 </r>
       <r>    7.7006    0.0000 </r>
       <r>    7.8902    0.0000 </r>
       <r>    7.9348    0.0000 </r>
       <r>    7.9891    0.0000 </r>
       <r>    7.9976    0.0000 </r>
       <r>    8.1215    0.0000 </r>
       <r>    8.2027    0.0000 </r>
       <r>    8.2237    0.0000 </r>
       <r>    8.2386    0.0000 </r>
       <r>    8.2790    0.0000 </r>
       <r>    8.3369    0.0000 </r>
       <r>    8.5097    0.0000 </r>
       <r>    8.5817    0.0000 </r>
       <r>    8.7015    0.0000 </r>
      </set>
     </set>
    </set>
   </array>
  </eigenvalues>
  <separator name="orbital magnetization" >
   <v name="MAGDIPOLOUT">      0.00000000      0.00000000      0.00000000</v>
  </separator>
  <dos>
   <i name="efermi">     -1.25637725 </i>
   <total>
    <array>
     <dimension dim="1">gridpoints</dimension>
     <dimension dim="2">spin</dimension>
     <field>energy</field>
     <field>total</field>
     <field>integrated</field>
     <set>
      <set comment="spin 1">
       <r>   -22.2556     0.0000     0.0000 </r>
       <r>   -22.1475     0.0000     0.0000 </r>
       <r>   -22.0394     0.0000     0.0000 </r>
       <r>   -21.9313     0.0000     0.0000 </r>
       <r>   -21.8232     0.0000     0.0000 </r>
       <r>   -21.7151     0.0000     0.0000 </r>
       <r>   -21.6070     0.0000     0.0000 </r>
       <r>   -21.4989     0.0000     0.0000 </r>
       <r>   -21.3908     0.0000     0.0000 </r>
       <r>   -21.2827     0.0000     0.0000 </r>
       <r>   -21.1746     0.0000     0.0000 </r>
       <r>   -21.0665     0.0000     0.0000 </r>
       <r>   -20.9584     0.0000     0.0000 </r>
       <r>   -20.8503     0.0000     0.0000 </r>
       <r>   -20.7422    18.5006     2.0000 </r>
       <r>   -20.6341     0.0000     2.0000 </r>
       <r>   -20.5260    11.7273     3.2678 </r>
       <r>   -20.4179    18.5006     6.0000 </r>
       <r>   -20.3098     0.0000     6.0000 </r>
       <r>   -20.2017    17.2913     7.8693 </r>
       <r>   -20.0936    53.0412    13.7340 </r>
       <r>   -19.9855    55.5019    20.0000 </r>
       <r>   -19.8774     0.0000    20.0000 </r>
       <r>   -19.7692     0.0000    20.0000 </r>
       <r>   -19.6611     2.4941    20.2696 </r>
       <r>   -19.5530    34.4488    27.7241 </r>
       <r>   -19.4449    40.7749    32.4079 </r>
       <r>   -19.3368     0.0000    34.0000 </r>
       <r>   -19.2287     0.0000    34.0000 </r>
       <r>   -19.1206    18.1073    35.9575 </r>
       <r>   -19.0125    18.5006    38.0000 </r>
       <r>   -18.9044     0.0000    38.0000 </r>
       <r>   -18.7963     0.0231    38.0025 </r>
       <r>   -18.6882   225.6097    66.3894 </r>
       <r>   -18.5801    74.0025    80.0000 </r>
       <r>   -18.4720     0.0000    80.0000 </r>
       <r>   -18.3639     0.0000    80.0000 </r>
       <r>   -18.2558     0.0000    80.0000 </r>
       <r>   -18.1477     0.0000    80.0000 </r>
       <r>   -18.0396     0.0000    80.0000 </r>
       <r>   -17.9315     0.0000    80.0000 </r>
       <r>   -17.8234     0.0000    80.0000 </r>
       <r>   -17.7153     0.0000    80.0000 </r>
       <r>   -17.6072     0.0000    80.0000 </r>
       <r>   -17.4991     0.0000    80.0000 </r>
       <r>   -17.3910     0.0000    80.0000 </r>
       <r>   -17.2828     0.0000    80.0000 </r>
       <r>   -17.1747     0.0000    80.0000 </r>
       <r>   -17.0666     0.0000    80.0000 </r>
       <r>   -16.9585     0.0000    80.0000 </r>
       <r>   -16.8504     0.0000    80.0000 </r>
       <r>   -16.7423     0.0000    80.0000 </r>
       <r>   -16.6342     0.0000    80.0000 </r>
       <r>   -16.5261     0.0000    80.0000 </r>
       <r>   -16.4180     0.0000    80.0000 </r>
       <r>   -16.3099     0.0000    80.0000 </r>
       <r>   -16.2018     0.0000    80.0000 </r>
       <r>   -16.0937     0.0000    80.0000 </r>
       <r>   -15.9856     0.0000    80.0000 </r>
       <r>   -15.8775     0.0000    80.0000 </r>
       <r>   -15.7694     0.0000    80.0000 </r>
       <r>   -15.6613     0.0000    80.0000 </r>
       <r>   -15.5532     0.0000    80.0000 </r>
       <r>   -15.4451     0.0000    80.0000 </r>
       <r>   -15.3370     0.0000    80.0000 </r>
       <r>   -15.2289     0.0000    80.0000 </r>
       <r>   -15.1208     0.0000    80.0000 </r>
       <r>   -15.0127     0.0000    80.0000 </r>
       <r>   -14.9046     0.0000    80.0000 </r>
       <r>   -14.7964     0.0000    80.0000 </r>
       <r>   -14.6883     0.0000    80.0000 </r>
       <r>   -14.5802     0.0000    80.0000 </r>
       <r>   -14.4721     0.0000    80.0000 </r>
       <r>   -14.3640     0.0000    80.0000 </r>
       <r>   -14.2559     0.0000    80.0000 </r>
       <r>   -14.1478     0.0000    80.0000 </r>
       <r>   -14.0397     0.0000    80.0000 </r>
       <r>   -13.9316     0.0000    80.0000 </r>
       <r>   -13.8235     0.0000    80.0000 </r>
       <r>   -13.7154     0.0000    80.0000 </r>
       <r>   -13.6073     0.0000    80.0000 </r>
       <r>   -13.4992     0.0000    80.0000 </r>
       <r>   -13.3911     0.0000    80.0000 </r>
       <r>   -13.2830     0.0000    80.0000 </r>
       <r>   -13.1749     0.0000    80.0000 </r>
       <r>   -13.0668     0.0000    80.0000 </r>
       <r>   -12.9587     0.0000    80.0000 </r>
       <r>   -12.8506     0.0000    80.0000 </r>
       <r>   -12.7425     0.0000    80.0000 </r>
       <r>   -12.6344     0.0000    80.0000 </r>
       <r>   -12.5263     0.0000    80.0000 </r>
       <r>   -12.4182     0.0000    80.0000 </r>
       <r>   -12.3100     0.0000    80.0000 </r>
       <r>   -12.2019     0.0000    80.0000 </r>
       <r>   -12.0938     0.0000    80.0000 </r>
       <r>   -11.9857     0.0000    80.0000 </r>
       <r>   -11.8776     0.0000    80.0000 </r>
       <r>   -11.7695     0.0000    80.0000 </r>
       <r>   -11.6614     0.0000    80.0000 </r>
       <r>   -11.5533     0.0000    80.0000 </r>
       <r>   -11.4452     0.0000    80.0000 </r>
       <r>   -11.3371     0.0000    80.0000 </r>
       <r>   -11.2290     0.0000    80.0000 </r>
       <r>   -11.1209     0.0000    80.0000 </r>
       <r>   -11.0128     0.0000    80.0000 </r>
       <r>   -10.9047     0.0000    80.0000 </r>
       <r>   -10.7966     0.0000    80.0000 </r>
       <r>   -10.6885    18.5006    82.0000 </r>
       <r>   -10.5804     0.0000    82.0000 </r>
       <r>   -10.4723     0.0000    82.0000 </r>
       <r>   -10.3642     0.0000    82.0000 </r>
       <r>   -10.2561     0.0000    82.0000 </r>
       <r>   -10.1480    18.5006    84.0000 </r>
       <r>   -10.0399     0.0000    84.0000 </r>
       <r>    -9.9318     0.0000    84.0000 </r>
       <r>    -9.8236    18.5006    86.0000 </r>
       <r>    -9.7155     0.0000    86.0000 </r>
       <r>    -9.6074     0.0000    86.0000 </r>
       <r>    -9.4993     0.0000    86.0000 </r>
       <r>    -9.3912     0.0718    86.0078 </r>
       <r>    -9.2831    18.5006    92.0000 </r>
       <r>    -9.1750    54.4713    97.8886 </r>
       <r>    -9.0669     0.0000    98.0000 </r>
       <r>    -8.9588     0.5299    98.0573 </r>
       <r>    -8.8507     0.0000   100.0000 </r>
       <r>    -8.7426     0.0000   100.0000 </r>
       <r>    -8.6345     0.0000   100.0000 </r>
       <r>    -8.5264     0.0070   100.0008 </r>
       <r>    -8.4183     0.0000   104.0000 </r>
       <r>    -8.3102     0.0000   104.0000 </r>
       <r>    -8.2021    37.0013   108.0000 </r>
       <r>    -8.0940    18.5006   110.0000 </r>
       <r>    -7.9859     0.0000   110.0000 </r>
       <r>    -7.8778     0.0000   110.0000 </r>
       <r>    -7.7697    37.0013   114.0000 </r>
       <r>    -7.6616     0.0000   114.0000 </r>
       <r>    -7.5535     0.0000   114.0000 </r>
       <r>    -7.4454     0.9005   114.0973 </r>
       <r>    -7.3372     0.0000   116.0000 </r>
       <r>    -7.2291     0.0000   116.0000 </r>
       <r>    -7.1210     0.0002   116.0000 </r>
       <r>    -7.0129    18.5004   118.0000 </r>
       <r>    -6.9048    37.0021   122.0001 </r>
       <r>    -6.7967    62.9048   130.8003 </r>
       <r>    -6.6886     0.0002   134.0000 </r>
       <r>    -6.5805    49.8265   139.3865 </r>
       <r>    -6.4724    38.6021   144.1731 </r>
       <r>    -6.3643     0.0000   146.0000 </r>
       <r>    -6.2562     0.0000   146.0000 </r>
       <r>    -6.1481    37.0013   150.0000 </r>
       <r>    -6.0400    31.8230   153.4402 </r>
       <r>    -5.9319    18.4718   155.9969 </r>
       <r>    -5.8238     0.0000   156.0000 </r>
       <r>    -5.7157    37.0012   160.0000 </r>
       <r>    -5.6076     0.0000   160.0000 </r>
       <r>    -5.4995     0.0000   160.0000 </r>
       <r>    -5.3914     0.0000   160.0000 </r>
       <r>    -5.2833    18.2001   161.9675 </r>
       <r>    -5.1752     0.0000   162.0000 </r>
       <r>    -5.0671    18.5006   164.0000 </r>
       <r>    -4.9590     0.0000   164.0000 </r>
       <r>    -4.8508     0.0000   164.0000 </r>
       <r>    -4.7427    29.4136   167.1797 </r>
       <r>    -4.6346     0.0000   168.0000 </r>
       <r>    -4.5265    55.5019   174.0000 </r>
       <r>    -4.4184     0.0020   174.0002 </r>
       <r>    -4.3103    92.5076   186.0005 </r>
       <r>    -4.2022    18.5909   190.0098 </r>
       <r>    -4.0941     9.2491   192.9999 </r>
       <r>    -3.9860     0.0010   196.0001 </r>
       <r>    -3.8779    37.0017   202.0000 </r>
       <r>    -3.7698    18.5002   204.0000 </r>
       <r>    -3.6617     0.0000   204.0000 </r>
       <r>    -3.5536    55.4089   209.9899 </r>
       <r>    -3.4455    18.7340   212.0252 </r>
       <r>    -3.3374     6.7706   214.7319 </r>
       <r>    -3.2293    18.5006   224.0000 </r>
       <r>    -3.1212    35.0821   227.7925 </r>
       <r>    -3.0131    55.4582   233.9953 </r>
       <r>    -2.9050    43.7004   238.7242 </r>
       <r>    -2.7969    43.7617   248.7308 </r>
       <r>    -2.6888    96.1581   260.3951 </r>
       <r>    -2.5807    73.9294   271.9921 </r>
       <r>    -2.4726    18.5006   274.0000 </r>
       <r>    -2.3644    37.9512   278.1027 </r>
       <r>    -2.2563    36.0495   287.8971 </r>
       <r>    -2.1482     4.4228   288.4781 </r>
       <r>    -2.0401     0.0000   294.0000 </r>
       <r>    -1.9320    18.5379   296.0040 </r>
       <r>    -1.8239    55.5019   304.0000 </r>
       <r>    -1.7158    37.0012   308.0000 </r>
       <r>    -1.6077     0.6419   308.0694 </r>
       <r>    -1.4996    29.5790   315.1976 </r>
       <r>    -1.3915    18.4998   317.9999 </r>
       <r>    -1.2834    18.5006   320.0000 </r>
       <r>    -1.1753     0.0000   320.0000 </r>
       <r>    -1.0672     0.0000   320.0000 </r>
       <r>    -0.9591     0.0000   320.0000 </r>
       <r>    -0.8510     0.0000   320.0000 </r>
       <r>    -0.7429     0.0000   320.0000 </r>
       <r>    -0.6348     0.0000   320.0000 </r>
       <r>    -0.5267     0.0000   320.0000 </r>
       <r>    -0.4186     0.0000   320.0000 </r>
       <r>    -0.3105     0.0000   320.0000 </r>
       <r>    -0.2024     0.0000   320.0000 </r>
       <r>    -0.0943     0.0000   320.0000 </r>
       <r>     0.0138     0.0000   320.0000 </r>
       <r>     0.1220     0.0000   320.0000 </r>
       <r>     0.2301     0.0000   320.0000 </r>
       <r>     0.3382     0.0000   320.0000 </r>
       <r>     0.4463     0.0000   320.0000 </r>
       <r>     0.5544     0.0000   320.0000 </r>
       <r>     0.6625     0.0000   320.0000 </r>
       <r>     0.7706     0.0000   320.0000 </r>
       <r>     0.8787     0.0000   320.0000 </r>
       <r>     0.9868     0.0000   320.0000 </r>
       <r>     1.0949     0.0000   320.0000 </r>
       <r>     1.2030     0.0000   320.0000 </r>
       <r>     1.3111     0.0000   320.0000 </r>
       <r>     1.4192     0.0000   320.0000 </r>
       <r>     1.5273     0.0000   320.0000 </r>
       <r>     1.6354     0.0000   320.0000 </r>
       <r>     1.7435     0.0000   320.0000 </r>
       <r>     1.8516     0.0000   320.0000 </r>
       <r>     1.9597     0.0000   320.0000 </r>
       <r>     2.0678     0.0000   320.0000 </r>
       <r>     2.1759     0.0000   320.0000 </r>
       <r>     2.2840     0.0000   320.0000 </r>
       <r>     2.3921     0.0000   320.0000 </r>
       <r>     2.5002     0.0000   320.0000 </r>
       <r>     2.6084     0.0000   320.0000 </r>
       <r>     2.7165     0.0000   320.0000 </r>
       <r>     2.8246     0.0000   320.0000 </r>
       <r>     2.9327     0.0000   320.0000 </r>
       <r>     3.0408     0.0000   320.0000 </r>
       <r>     3.1489     0.0000   320.0000 </r>
       <r>     3.2570     0.0000   320.0000 </r>
       <r>     3.3651     0.0000   320.0000 </r>
       <r>     3.4732     0.0000   320.0000 </r>
       <r>     3.5813     0.0000   320.0000 </r>
       <r>     3.6894     0.0000   320.0000 </r>
       <r>     3.7975     0.0000   320.0000 </r>
       <r>     3.9056     0.0000   320.0000 </r>
       <r>     4.0137     0.0000   320.0000 </r>
       <r>     4.1218     0.0000   320.0000 </r>
       <r>     4.2299    18.1869   321.9661 </r>
       <r>     4.3380     0.0000   322.0000 </r>
       <r>     4.4461     0.0000   322.0000 </r>
       <r>     4.5542     0.0000   322.0000 </r>
       <r>     4.6623     0.0000   322.0000 </r>
       <r>     4.7704     0.0000   322.0000 </r>
       <r>     4.8785     0.0000   322.0000 </r>
       <r>     4.9866     0.0000   322.0000 </r>
       <r>     5.0948     0.0000   322.0000 </r>
       <r>     5.2029    14.2012   323.5352 </r>
       <r>     5.3110     0.0000   324.0000 </r>
       <r>     5.4191     0.0000   324.0000 </r>
       <r>     5.5272     0.0000   324.0000 </r>
       <r>     5.6353    18.5006   326.0000 </r>
       <r>     5.7434     0.0000   326.0000 </r>
       <r>     5.8515     0.0000   326.0000 </r>
       <r>     5.9596     0.0000   326.0000 </r>
       <r>     6.0677     0.0000   326.0000 </r>
       <r>     6.1758     0.0000   326.0000 </r>
       <r>     6.2839    17.7950   327.9237 </r>
       <r>     6.3920     0.0000   328.0000 </r>
       <r>     6.5001     0.0856   328.0093 </r>
       <r>     6.6082    18.5006   332.0000 </r>
       <r>     6.7163     0.0000   332.0000 </r>
       <r>     6.8244    37.0013   336.0000 </r>
       <r>     6.9325     0.1523   336.0165 </r>
       <r>     7.0406     0.0000   338.0000 </r>
       <r>     7.1487    25.6700   340.7750 </r>
       <r>     7.2568    37.0010   350.0000 </r>
       <r>     7.3649    14.9688   351.6182 </r>
       <r>     7.4730     0.0000   352.0000 </r>
       <r>     7.5812     0.0000   352.0000 </r>
       <r>     7.6893    20.7820   354.2466 </r>
       <r>     7.7974     0.0000   358.0000 </r>
       <r>     7.9055    18.2125   359.9689 </r>
       <r>     8.0136    55.2750   365.9755 </r>
       <r>     8.1217     9.4023   367.0164 </r>
       <r>     8.2298    35.3376   371.8201 </r>
       <r>     8.3379    28.7800   377.1112 </r>
       <r>     8.4460     0.0000   378.0000 </r>
       <r>     8.5541    18.5015   380.0001 </r>
       <r>     8.6622     0.0000   382.0000 </r>
       <r>     8.7703    18.5006   384.0000 </r>
       <r>     8.8784     0.0000   384.0000 </r>
       <r>     8.9865     0.0000   384.0000 </r>
       <r>     9.0946     0.0000   384.0000 </r>
       <r>     9.2027     0.0000   384.0000 </r>
       <r>     9.3108     0.0000   384.0000 </r>
       <r>     9.4189     0.0000   384.0000 </r>
       <r>     9.5270     0.0000   384.0000 </r>
       <r>     9.6351     0.0000   384.0000 </r>
       <r>     9.7432     0.0000   384.0000 </r>
       <r>     9.8513     0.0000   384.0000 </r>
       <r>     9.9594     0.0000   384.0000 </r>
       <r>    10.0676     0.0000   384.0000 </r>
       <r>    10.1757     0.0000   384.0000 </r>
      </set>
     </set>
    </array>
   </total>
  </dos>
 </calculation>
 <structure name="finalpos" >
  <crystal>
   <varray name="basis" >
    <v>       8.67400000       0.00000000       0.00000000 </v>
    <v>      -0.00000000       8.67400000       0.00000000 </v>
    <v>       0.00000000       0.00000000      13.91900000 </v>
   </varray>
   <i name="volume">   1047.24156364 </i>
   <varray name="rec_basis" >
    <v>       0.11528706       0.00000000       0.00000000 </v>
    <v>       0.00000000       0.11528706       0.00000000 </v>
    <v>      -0.00000000      -0.00000000       0.07184424 </v>
   </varray>
  </crystal>
  <varray name="positions" >
   <v>       0.25340000       0.43080000       0.11140000 </v>
   <v>       0.56920000       0.25340000       0.11140000 </v>
   <v>       0.74660000       0.56920000       0.11140000 </v>
   <v>       0.43080000       0.74660000       0.11140000 </v>
   <v>       0.74660000       0.43080000       0.61140000 </v>
   <v>       0.43080000       0.25340000       0.61140000 </v>
   <v>       0.25340000       0.56920000       0.61140000 </v>
   <v>       0.56920000       0.74660000       0.61140000 </v>
   <v>       0.74660000       0.56920000       0.88860000 </v>
   <v>       0.43080000       0.74660000       0.88860000 </v>
   <v>       0.25340000       0.43080000       0.88860000 </v>
   <v>       0.56920000       0.25340000       0.88860000 </v>
   <v>       0.25340000       0.56920000       0.38860000 </v>
   <v>       0.56920000       0.74660000       0.38860000 </v>
   <v>       0.74660000       0.43080000       0.38860000 </v>
   <v>       0.43080000       0.25340000       0.38860000 </v>
   <v>       0.00000000       0.50000000       0.25000000 </v>
   <v>       0.50000000       0.00000000       0.25000000 </v>
   <v>       0.00000000       0.50000000       0.75000000 </v>
   <v>       0.50000000       0.00000000       0.75000000 </v>
   <v>       0.10890000       0.60740000       0.31780000 </v>
   <v>       0.39260000       0.10890000       0.31780000 </v>
   <v>       0.89110000       0.39260000       0.31780000 </v>
   <v>       0.60740000       0.89110000       0.31780000 </v>
   <v>       0.89110000       0.60740000       0.81780000 </v>
   <v>       0.60740000       0.10890000       0.81780000 </v>
   <v>       0.10890000       0.39260000       0.81780000 </v>
   <v>       0.39260000       0.89110000       0.81780000 </v>
   <v>       0.89110000       0.39260000       0.68220000 </v>
   <v>       0.60740000       0.89110000       0.68220000 </v>
   <v>       0.10890000       0.60740000       0.68220000 </v>
   <v>       0.39260000       0.10890000       0.68220000 </v>
   <v>       0.10890000       0.39260000       0.18220000 </v>
   <v>       0.39260000       0.89110000       0.18220000 </v>
   <v>       0.89110000       0.60740000       0.18220000 </v>
   <v>       0.60740000       0.10890000       0.18220000 </v>
   <v>       0.19850000       0.41550000       0.00000000 </v>
   <v>       0.58450000       0.19850000       0.00000000 </v>
   <v>       0.80150000       0.58450000       0.00000000 </v>
   <v>       0.41550000       0.80150000       0.00000000 </v>
   <v>       0.80150000       0.41550000       0.50000000 </v>
   <v>       0.41550000       0.19850000       0.50000000 </v>
   <v>       0.19850000       0.58450000       0.50000000 </v>
   <v>       0.58450000       0.80150000       0.50000000 </v>
   <v>       0.39380000       0.31100000       0.13210000 </v>
   <v>       0.68900000       0.39380000       0.13210000 </v>
   <v>       0.60620000       0.68900000       0.13210000 </v>
   <v>       0.31100000       0.60620000       0.13210000 </v>
   <v>       0.60620000       0.31100000       0.63210000 </v>
   <v>       0.31100000       0.39380000       0.63210000 </v>
   <v>       0.39380000       0.68900000       0.63210000 </v>
   <v>       0.68900000       0.60620000       0.63210000 </v>
   <v>       0.60620000       0.68900000       0.86790000 </v>
   <v>       0.31100000       0.60620000       0.86790000 </v>
   <v>       0.39380000       0.31100000       0.86790000 </v>
   <v>       0.68900000       0.39380000       0.86790000 </v>
   <v>       0.39380000       0.68900000       0.36790000 </v>
   <v>       0.68900000       0.60620000       0.36790000 </v>
   <v>       0.60620000       0.31100000       0.36790000 </v>
   <v>       0.31100000       0.39380000       0.36790000 </v>
  </varray>
 </structure>
</modeling>
