DDEC                                    
           1
     8.674000    0.000000    0.000000
    -0.000000    8.674000    0.000000
     0.000000    0.000000   13.919000
   Si   O 
  20  40
Direct configuration=     1
   0.25340000  0.43080000  0.11140000
   0.56920000  0.25340000  0.11140000
   0.74660000  0.56920000  0.11140000
   0.43080000  0.74660000  0.11140000
   0.74660000  0.43080000  0.61140000
   0.43080000  0.25340000  0.61140000
   0.25340000  0.56920000  0.61140000
   0.56920000  0.74660000  0.61140000
   0.74660000  0.56920000  0.88860000
   0.43080000  0.74660000  0.88860000
   0.25340000  0.43080000  0.88860000
   0.56920000  0.25340000  0.88860000
   0.25340000  0.56920000  0.38860000
   0.56920000  0.74660000  0.38860000
   0.74660000  0.43080000  0.38860000
   0.43080000  0.25340000  0.38860000
   0.00000000  0.50000000  0.25000000
   0.50000000  0.00000000  0.25000000
   0.00000000  0.50000000  0.75000000
   0.50000000  0.00000000  0.75000000
   0.10890000  0.60740000  0.31780000
   0.39260000  0.10890000  0.31780000
   0.89110000  0.39260000  0.31780000
   0.60740000  0.89110000  0.31780000
   0.89110000  0.60740000  0.81780000
   0.60740000  0.10890000  0.81780000
   0.10890000  0.39260000  0.81780000
   0.39260000  0.89110000  0.81780000
   0.89110000  0.39260000  0.68220000
   0.60740000  0.89110000  0.68220000
   0.10890000  0.60740000  0.68220000
   0.39260000  0.10890000  0.68220000
   0.10890000  0.39260000  0.18220000
   0.39260000  0.89110000  0.18220000
   0.89110000  0.60740000  0.18220000
   0.60740000  0.10890000  0.18220000
   0.19850000  0.41550000  0.00000000
   0.58450000  0.19850000  0.00000000
   0.80150000  0.58450000  0.00000000
   0.41550000  0.80150000  0.00000000
   0.80150000  0.41550000  0.50000000
   0.41550000  0.19850000  0.50000000
   0.19850000  0.58450000  0.50000000
   0.58450000  0.80150000  0.50000000
   0.39380000  0.31100000  0.13210000
   0.68900000  0.39380000  0.13210000
   0.60620000  0.68900000  0.13210000
   0.31100000  0.60620000  0.13210000
   0.60620000  0.31100000  0.63210000
   0.31100000  0.39380000  0.63210000
   0.39380000  0.68900000  0.63210000
   0.68900000  0.60620000  0.63210000
   0.60620000  0.68900000  0.86790000
   0.31100000  0.60620000  0.86790000
   0.39380000  0.31100000  0.86790000
   0.68900000  0.39380000  0.86790000
   0.39380000  0.68900000  0.36790000
   0.68900000  0.60620000  0.36790000
   0.60620000  0.31100000  0.36790000
   0.31100000  0.39380000  0.36790000
