Compiler and run-time data
===========================================================================
RASPA 2.0.47
Compiled as a 64-bits application
Compiler: gcc Intel(R) C++ gcc 11.2 mode
Compile Date = Sep 12 2022, Compile Time = 14:43:25

Wed May 10 00:23:42 2023
Simulation started on Wednesday, May 10.
The start time was 12:23 AM.

Hostname:    matrix
OS type:     Linux on x86_64
OS release:  5.19.0-41-generic
OS version:  #42~22.04.1-Ubuntu SMP PREEMPT_DYNAMIC Tue Apr 18 17:40:00 UTC 2

Simulation
===========================================================================
Dimensions: 3
Random number seed: 1683649422
RASPA directory set to: /opt/RASPA
String appended to output-files: 
Number of cycles: 100
Number of initializing cycles: 100
Number of equilibration cycles: 0
Print every: 20
Rectangular boundary condition applied
Timestep: 0.000500
	Degrees of freedom:                        0
	Translational Degrees of freedom:          0
	Rotational Degrees of freedom:             0
	Degrees of freedom Framework:              0


Mutual consistent basic set of units:
======================================
Unit of temperature: Kelvin
Unit of length:      1e-10 [m]
Unit of time:        1e-12 [s]
Unit of mass:        1.66054e-27 [kg]
Unit of charge:      1.60218e-19 [C/particle]

Derived units and their conversion factors:
===========================================
Unit of energy:              1.66054e-23 [J]
Unit of force:               1.66054e-13 [N]
Unit of pressure:            1.66054e+07 [Pa]
Unit of velocity:            100 [m/s]
Unit of acceleration:        1e-08 [m^2/s]
Unit of diffusion:           1e-08 [m^2/s]
Unit of dipole moment:       1.60218e-29 [C.m]
Unit of electric potential:  0.000103643 [V]
Unit of electric field:      1.03643e+06 [V]
Unit of polarizability:      1.54587e-35 [-]
Unit of Coulomb potential:   167101.0800066561  [K]
Unit of dielectric constant: 0.0000154587       [s^2 C^2/(kg m^3)]
Unit of wave vectors:        5.3088374589       [cm^1]
Boltzmann constant:          0.8314464919       [-]

Internal conversion factors:
===========================================
Energy to Kelvin:                                    1.2027242847
FH correction factor                                 2.0211930949
Heat capacity conversion factor:                    10.0000088723
From Debye to internal units:                        4.8032067991
Isothermal compressibility conversion factor:        0.0000000602

Energy conversion factors:
===========================================
From mdyne/A to kcal/mol/A^2:           143.933
From mdyne/A to kj/mol/A^2:             602.214
From mdyne/A to K/A^2:                  72429.7
From mdyne A/rad^2 to kcal/mol/deg^2:   0.0438444


Properties computed
===========================================================================
Movies: yes
	Movie snapshots are appended to file every 200 cycles
Radial Distribution Function: no
Number of molecules GCMC histogram: no
Histogram of the molecule positions: no
Free energy profiles: no
Pore Size Distribution Function: no
End-to-end distance: no
Histogram of the energy of the system: no
Compute thermodynamic factors: no
Framework spacing histograms: no
Residence times histograms: no
Distance histograms: no
Bend Angle histograms: no
Dihedral angle histograms: no
Angle between planes histograms: no
Molecule properties: no
Infra-red spectra: no
Mean-squared displacement using modified order-N algorithm: no
Velocity-autocorrelation function modified order-N algorithm: no
Rotational velocity-autocorrelation function modified order-N algorithm: no
Molecular orientation-autocorrelation function modified order-N algorithm: no
Bond orientation-autocorrelation function modified order-N algorithm: no
Mean-squared displacement (conventional algorithm): no
Velocity-autocorrelation function (conventional algorithm): no
3D density grid for adsorbates: yes
	3D density grids for adsorbates are written to file every 200 cycles
	3D density grids consisting of 200 x 200 x 200 points
	3D density grid made for the full simulation-cell
	3D density grid averaged over all unit cells
Compute cation an/or adsorption sites: no
dcTST snapshots: no
Compute pressure and stress: no


VTK
===========================================================================
VTK fractional-range position framework atoms: [-0.001000,1.001000] [-0.001000,1.001000] [-0.001000,1.001000]
VTK fractional-range position framework bonds: [-0.151000,1.151000] [-0.151000,1.151000] [-0.151000,1.151000]
VTK fractional-range com-position adsorbate molecules: [-0.101000,1.101000] [-0.101000,1.101000] [-0.101000,1.101000]
VTK fractional-range com-position cation molecules: [-0.101000,1.101000] [-0.101000,1.101000] [-0.101000,1.101000]
	3D free energy grid made for the full simulation-cell


Thermo/Baro-stat NHC parameters
===========================================================================
External temperature: 298 [K]
Beta: 0.00403598 [energy unit]
External Pressure: 101325 [Pa]


Thermostat chain-length: 3
Timescale parameter for thermostat: 0.150000 [ps]
Barostat chain-length:   3
Timescale parameter for barostat:   0.150000 [ps]

Number of Yoshida-Suzuki decomposition steps: 5
Number of respa steps: 5


Method and settings for electrostatics
===============================================================================
Dielectric constant of the medium : 1.000000
Charge from charge-equilibration: no
Ewald summation is used (exact solution of a periodic system)
Relative precision                : 1e-06
Alpha convergence parameter       : 0.265058
kvec (x,y,z)                      : 5 5 8


CFC-RXMC parameters
===========================================================================
Number of reactions: 0


Rattle parameters
===========================================================================
Distance constraint type: r^2-r^2_0
Bend angle constraint type: theta-theta_0
Dihedral angle constraint type: phi-phi_0
Inversion-bend angle constraint type: chi-chi_0
Out-of-plane distance constraint type: r-r_0


Spectra parameters
===========================================================================
Compute normal modes: no


Minimization parameters
===========================================================================
Generalized coordinates are: Cartesian center-of-mass, elements of the orientational matrix p1,p2,p3 and strain
Potential derivatives are evaluated: analytically
Translation of the system is removed from the generalized Hessian: no
Rotation of the system is removed from the generalized Hessian: no
Maximum step-length: 0.3
Convergence factor: 1
Maximum number of minimization steps: 10000
Use gradients in the line-minimizations: yes
RMS gradient tolerance: 1e-06
Maximum gradient tolerance: 1e-06

Distance constraints: 0
Angle constraints: 0
Dihedral constraints: 0

Improper dihedral constraints: 0

Inversion-bend constraints: 0

Out-of-plane constraints: 0

Harmonic distance constraints: 0
Harmonic angle constraints: 0
Harmonic dihedral constraints: 0

Dihedral mid-point measurements: 0

All framework atoms are fixed

Fixed adsorbate atoms:  
Fixed adsorbate groups (center-of-mass):  
Fixed adsorbate groups (orientation):  

Fixed cation atoms:  
Fixed cation groups (center-of-mass):  
Fixed cation groups (orientation):  


dcTST parameters
===========================================================================
Free energy profiles computed: no
Free energy profiles written every 5000 cycles
Free energy mapping: mapped to a,b,c-coordinates
BarrierPosition:       0.0000000000       0.0000000000       0.0000000000
BarrierNormal:         0.0000000000       0.0000000000       0.0000000000
Start with a molecule on top of the barrier: no
Maximum distance to barrier (e.g. distance to minumum free energy):       0.0000000000 [A]
Maximum trajectory time:      10.0000000000 [ps]
Each configuration is used with 5 different initial velocities


Cbmc parameters
===========================================================================
Biasing method: using only the VDW part
Number of trial positions:                                       10
Number of trial positions (reinsertion):                         10
Number of trial positions (partial reinsertion):                 10
Number of trial positions (identity-change):                     10
Number of trial positions (Gibbs particle transfer):             10
Number of trial positions (insertion/deletion):                  10
Number of trial positions (Widom insertion):                     10
Number of trial positions coupled Torsion-selection:             100
Number of trial positions first bead:                            10
Number of trial positions first bead (reinsertion):              10
Number of trial positions first bead (partial reinsertion):      10
Number of trial positions first bead (identity-change):          10
Number of trial positions first bead (Gibbs particle transfer):  10
Number of trial positions first bead (insertion/deletion):       10
Number of trial positions first bead (Widom insertion):          10
Number of trial moves per open bead:                             150
Target acceptance ratio small-mc scheme:                         0.400000
Energy overlap criteria:                                         1e+07
Minimal Rosenbluth factor:                                       1e-150


Pseudo atoms: 137
===========================================================================
Pseudo Atom[   0] Name UNIT     Oxidation:          Element: H    pdb-name: H    Scat. Types:   1   1 Mass=1.000000000  B-factor:0.000   
                 Charge=1.000000000          Polarization=0.000000000  [A^3] (considered a charged atom and no polarization)  Interactions: yes
                 Anisotropic factor:    0.000 [-] (Absolute), Radius:    1.000 [A], Framework-atom:  no
Pseudo Atom[   1] Name He       Oxidation: +0       Element: He   pdb-name: He   Scat. Types:   3   2 Mass=4.002602000  B-factor:1.000   
                 Charge=0.000000000          Polarization=0.000000000  [A^3] (considered a chargeless atom and no polarization)  Interactions: yes
                 Anisotropic factor:    0.000 [-] (Relative), Radius:    1.000 [A], Framework-atom:  no
Pseudo Atom[   2] Name As_AsF3  Oxidation: +0       Element: As   pdb-name: As   Scat. Types:  34  33 Mass=74.922000000 B-factor:1.000   
                 Charge=1.125000000          Polarization=0.000000000  [A^3] (considered a charged atom and no polarization)  Interactions: yes
                 Anisotropic factor:    0.000 [-] (Relative), Radius:    1.000 [A], Framework-atom:  no
Pseudo Atom[   3] Name F_AsF3   Oxidation: +0       Element: F    pdb-name: F    Scat. Types:  10   9 Mass=18.998000000 B-factor:1.000   
                 Charge=-0.375000000         Polarization=0.000000000  [A^3] (considered a charged atom and no polarization)  Interactions: yes
                 Anisotropic factor:    0.000 [-] (Relative), Radius:    1.000 [A], Framework-atom:  no
Pseudo Atom[   4] Name As_AsH3  Oxidation: +0       Element: As   pdb-name: As   Scat. Types:  34  33 Mass=74.922000000 B-factor:1.000   
                 Charge=-0.045000000         Polarization=0.000000000  [A^3] (considered a charged atom and no polarization)  Interactions: yes
                 Anisotropic factor:    0.000 [-] (Relative), Radius:    1.000 [A], Framework-atom:  no
Pseudo Atom[   5] Name H_AsH3   Oxidation: +0       Element: H    pdb-name: H    Scat. Types:   1   1 Mass=1.007800000  B-factor:1.000   
                 Charge=0.015000000          Polarization=0.000000000  [A^3] (considered a charged atom and no polarization)  Interactions: yes
                 Anisotropic factor:    0.000 [-] (Relative), Radius:    1.000 [A], Framework-atom:  no
Pseudo Atom[   6] Name B_B2H6   Oxidation: +0       Element: B    pdb-name: B    Scat. Types:   6   4 Mass=10.811000000 B-factor:1.000   
                 Charge=0.055000000          Polarization=0.000000000  [A^3] (considered a charged atom and no polarization)  Interactions: yes
                 Anisotropic factor:    0.000 [-] (Relative), Radius:    1.000 [A], Framework-atom:  no
Pseudo Atom[   7] Name H1_B2H6  Oxidation: +0       Element: H    pdb-name: H    Scat. Types:   1   1 Mass=1.007800000  B-factor:1.000   
                 Charge=-0.085000000         Polarization=0.000000000  [A^3] (considered a charged atom and no polarization)  Interactions: yes
                 Anisotropic factor:    0.000 [-] (Relative), Radius:    1.000 [A], Framework-atom:  no
Pseudo Atom[   8] Name H2_B2H6  Oxidation: +0       Element: H    pdb-name: H    Scat. Types:   1   1 Mass=1.007800000  B-factor:1.000   
                 Charge=0.115000000          Polarization=0.000000000  [A^3] (considered a charged atom and no polarization)  Interactions: yes
                 Anisotropic factor:    0.000 [-] (Relative), Radius:    1.000 [A], Framework-atom:  no
Pseudo Atom[   9] Name B_BCl3   Oxidation: +0       Element: B    pdb-name: B    Scat. Types:   6   4 Mass=10.811000000 B-factor:1.000   
                 Charge=0.240000000          Polarization=0.000000000  [A^3] (considered a charged atom and no polarization)  Interactions: yes
                 Anisotropic factor:    0.000 [-] (Relative), Radius:    1.000 [A], Framework-atom:  no
Pseudo Atom[  10] Name Cl_BCl3  Oxidation: +0       Element: Cl   pdb-name: Cl   Scat. Types:  18  17 Mass=35.453000000 B-factor:1.000   
                 Charge=-0.080000000         Polarization=0.000000000  [A^3] (considered a charged atom and no polarization)  Interactions: yes
                 Anisotropic factor:    0.000 [-] (Relative), Radius:    1.000 [A], Framework-atom:  no
Pseudo Atom[  11] Name C_C2F6   Oxidation: +0       Element: C    pdb-name: C    Scat. Types:   7   6 Mass=12.011000000 B-factor:1.000   
                 Charge=0.342000000          Polarization=0.000000000  [A^3] (considered a charged atom and no polarization)  Interactions: yes
                 Anisotropic factor:    0.000 [-] (Relative), Radius:    1.000 [A], Framework-atom:  no
Pseudo Atom[  12] Name F_C2F6   Oxidation: +0       Element: F    pdb-name: F    Scat. Types:  10   9 Mass=18.998000000 B-factor:1.000   
                 Charge=-0.114000000         Polarization=0.000000000  [A^3] (considered a charged atom and no polarization)  Interactions: yes
                 Anisotropic factor:    0.000 [-] (Relative), Radius:    1.000 [A], Framework-atom:  no
Pseudo Atom[  13] Name C_CF4    Oxidation: +0       Element: C    pdb-name: C    Scat. Types:   7   6 Mass=12.011000000 B-factor:1.000   
                 Charge=0.672000000          Polarization=0.000000000  [A^3] (considered a charged atom and no polarization)  Interactions: yes
                 Anisotropic factor:    0.000 [-] (Relative), Radius:    1.000 [A], Framework-atom:  no
Pseudo Atom[  14] Name F_CF4    Oxidation: +0       Element: F    pdb-name: F    Scat. Types:  10   9 Mass=18.998000000 B-factor:1.000   
                 Charge=-0.168000000         Polarization=0.000000000  [A^3] (considered a charged atom and no polarization)  Interactions: yes
                 Anisotropic factor:    0.000 [-] (Relative), Radius:    1.000 [A], Framework-atom:  no
Pseudo Atom[  15] Name C_CH2Cl2 Oxidation: +0       Element: C    pdb-name: C    Scat. Types:   7   6 Mass=12.011000000 B-factor:1.000   
                 Charge=-0.358000000         Polarization=0.000000000  [A^3] (considered a charged atom and no polarization)  Interactions: yes
                 Anisotropic factor:    0.000 [-] (Relative), Radius:    1.000 [A], Framework-atom:  no
Pseudo Atom[  16] Name H_CH2Cl2 Oxidation: +0       Element: H    pdb-name: H    Scat. Types:   1   1 Mass=1.007800000  B-factor:1.000   
                 Charge=0.229000000          Polarization=0.000000000  [A^3] (considered a charged atom and no polarization)  Interactions: yes
                 Anisotropic factor:    0.000 [-] (Relative), Radius:    1.000 [A], Framework-atom:  no
Pseudo Atom[  17] Name Cl_CH2Cl2 Oxidation: +0       Element: Cl   pdb-name: Cl   Scat. Types:  18  17 Mass=35.453000000 B-factor:1.000   
                 Charge=-0.050000000         Polarization=0.000000000  [A^3] (considered a charged atom and no polarization)  Interactions: yes
                 Anisotropic factor:    0.000 [-] (Relative), Radius:    1.000 [A], Framework-atom:  no
Pseudo Atom[  18] Name C_CH4    Oxidation: +0       Element: C    pdb-name: C    Scat. Types:   7   6 Mass=12.011000000 B-factor:1.000   
                 Charge=-0.444000000         Polarization=0.000000000  [A^3] (considered a charged atom and no polarization)  Interactions: yes
                 Anisotropic factor:    0.000 [-] (Relative), Radius:    1.000 [A], Framework-atom:  no
Pseudo Atom[  19] Name H_CH4    Oxidation: +0       Element: H    pdb-name: H    Scat. Types:   1   1 Mass=1.007800000  B-factor:1.000   
                 Charge=0.111000000          Polarization=0.000000000  [A^3] (considered a charged atom and no polarization)  Interactions: yes
                 Anisotropic factor:    0.000 [-] (Relative), Radius:    1.000 [A], Framework-atom:  no
Pseudo Atom[  20] Name C_CHF3   Oxidation: +0       Element: C    pdb-name: C    Scat. Types:   7   6 Mass=12.011000000 B-factor:1.000   
                 Charge=0.480000000          Polarization=0.000000000  [A^3] (considered a charged atom and no polarization)  Interactions: yes
                 Anisotropic factor:    0.000 [-] (Relative), Radius:    1.000 [A], Framework-atom:  no
Pseudo Atom[  21] Name H_CHF3   Oxidation: +0       Element: H    pdb-name: H    Scat. Types:   1   1 Mass=1.007800000  B-factor:1.000   
                 Charge=0.081000000          Polarization=0.000000000  [A^3] (considered a charged atom and no polarization)  Interactions: yes
                 Anisotropic factor:    0.000 [-] (Relative), Radius:    1.000 [A], Framework-atom:  no
Pseudo Atom[  22] Name F_CHF3   Oxidation: +0       Element: F    pdb-name: F    Scat. Types:  10   9 Mass=18.998000000 B-factor:1.000   
                 Charge=-0.187000000         Polarization=0.000000000  [A^3] (considered a charged atom and no polarization)  Interactions: yes
                 Anisotropic factor:    0.000 [-] (Relative), Radius:    1.000 [A], Framework-atom:  no
Pseudo Atom[  23] Name Cl_Cl2   Oxidation: +0       Element: Cl   pdb-name: Cl   Scat. Types:  18  17 Mass=35.453000000 B-factor:1.000   
                 Charge=0.000000000          Polarization=0.000000000  [A^3] (considered a chargeless atom and no polarization)  Interactions: yes
                 Anisotropic factor:    0.000 [-] (Relative), Radius:    1.000 [A], Framework-atom:  no
Pseudo Atom[  24] Name Cl_ClF3  Oxidation: +0       Element: Cl   pdb-name: Cl   Scat. Types:  18  17 Mass=35.453000000 B-factor:1.000   
                 Charge=0.540000000          Polarization=0.000000000  [A^3] (considered a charged atom and no polarization)  Interactions: yes
                 Anisotropic factor:    0.000 [-] (Relative), Radius:    1.000 [A], Framework-atom:  no
Pseudo Atom[  25] Name F_ClF3   Oxidation: +0       Element: F    pdb-name: F    Scat. Types:  10   9 Mass=18.998000000 B-factor:1.000   
                 Charge=-0.180000000         Polarization=0.000000000  [A^3] (considered a charged atom and no polarization)  Interactions: yes
                 Anisotropic factor:    0.000 [-] (Relative), Radius:    1.000 [A], Framework-atom:  no
Pseudo Atom[  26] Name C_CO     Oxidation: +0       Element: C    pdb-name: C    Scat. Types:   7   6 Mass=12.011000000 B-factor:1.000   
                 Charge=-0.009000000         Polarization=0.000000000  [A^3] (considered a charged atom and no polarization)  Interactions: yes
                 Anisotropic factor:    0.000 [-] (Relative), Radius:    1.000 [A], Framework-atom:  no
Pseudo Atom[  27] Name O_CO     Oxidation: +0       Element: O    pdb-name: O    Scat. Types:   9   8 Mass=15.999000000 B-factor:1.000   
                 Charge=0.009000000          Polarization=0.000000000  [A^3] (considered a charged atom and no polarization)  Interactions: yes
                 Anisotropic factor:    0.000 [-] (Relative), Radius:    1.000 [A], Framework-atom:  no
Pseudo Atom[  28] Name C_CO2    Oxidation: +0       Element: C    pdb-name: C    Scat. Types:   7   6 Mass=12.011000000 B-factor:1.000   
                 Charge=0.728000000          Polarization=0.000000000  [A^3] (considered a charged atom and no polarization)  Interactions: yes
                 Anisotropic factor:    0.000 [-] (Relative), Radius:    1.000 [A], Framework-atom:  no
Pseudo Atom[  29] Name O_CO2    Oxidation: +0       Element: O    pdb-name: O    Scat. Types:   9   8 Mass=15.999000000 B-factor:1.000   
                 Charge=-0.364000000         Polarization=0.000000000  [A^3] (considered a charged atom and no polarization)  Interactions: yes
                 Anisotropic factor:    0.000 [-] (Relative), Radius:    1.000 [A], Framework-atom:  no
Pseudo Atom[  30] Name F_F2     Oxidation: +0       Element: F    pdb-name: F    Scat. Types:  10   9 Mass=16.998000000 B-factor:1.000   
                 Charge=0.000000000          Polarization=0.000000000  [A^3] (considered a chargeless atom and no polarization)  Interactions: yes
                 Anisotropic factor:    0.000 [-] (Relative), Radius:    1.000 [A], Framework-atom:  no
Pseudo Atom[  31] Name Ge_GeH4  Oxidation: +0       Element: Ge   pdb-name: Ge   Scat. Types:  33  32 Mass=72.640000000 B-factor:1.000   
                 Charge=0.348000000          Polarization=0.000000000  [A^3] (considered a charged atom and no polarization)  Interactions: yes
                 Anisotropic factor:    0.000 [-] (Relative), Radius:    1.000 [A], Framework-atom:  no
Pseudo Atom[  32] Name H_GeH4   Oxidation: +0       Element: H    pdb-name: H    Scat. Types:   1   1 Mass=1.007800000  B-factor:1.000   
                 Charge=-0.087000000         Polarization=0.000000000  [A^3] (considered a charged atom and no polarization)  Interactions: yes
                 Anisotropic factor:    0.000 [-] (Relative), Radius:    1.000 [A], Framework-atom:  no
Pseudo Atom[  33] Name H_H2     Oxidation: +0       Element: H    pdb-name: H    Scat. Types:   1   1 Mass=1.007800000  B-factor:1.000   
                 Charge=0.000000000          Polarization=0.000000000  [A^3] (considered a chargeless atom and no polarization)  Interactions: yes
                 Anisotropic factor:    0.000 [-] (Relative), Radius:    1.000 [A], Framework-atom:  no
Pseudo Atom[  34] Name O_H2O    Oxidation: +0       Element: O    pdb-name: O    Scat. Types:   9   8 Mass=15.999000000 B-factor:1.000   
                 Charge=-0.700000000         Polarization=0.000000000  [A^3] (considered a charged atom and no polarization)  Interactions: yes
                 Anisotropic factor:    0.000 [-] (Relative), Radius:    1.000 [A], Framework-atom:  no
Pseudo Atom[  35] Name H_H2O    Oxidation: +0       Element: H    pdb-name: H    Scat. Types:   1   1 Mass=1.007800000  B-factor:1.000   
                 Charge=0.350000000          Polarization=0.000000000  [A^3] (considered a charged atom and no polarization)  Interactions: yes
                 Anisotropic factor:    0.000 [-] (Relative), Radius:    1.000 [A], Framework-atom:  no
Pseudo Atom[  36] Name H_HBr    Oxidation: +0       Element: H    pdb-name: H    Scat. Types:   1   1 Mass=1.007800000  B-factor:1.000   
                 Charge=0.156000000          Polarization=0.000000000  [A^3] (considered a charged atom and no polarization)  Interactions: yes
                 Anisotropic factor:    0.000 [-] (Relative), Radius:    1.000 [A], Framework-atom:  no
Pseudo Atom[  37] Name Br_HBr   Oxidation: +0       Element: Br   pdb-name: Br   Scat. Types:  36  35 Mass=79.904000000 B-factor:1.000   
                 Charge=-0.156000000         Polarization=0.000000000  [A^3] (considered a charged atom and no polarization)  Interactions: yes
                 Anisotropic factor:    0.000 [-] (Relative), Radius:    1.000 [A], Framework-atom:  no
Pseudo Atom[  38] Name N_N2     Oxidation: +0       Element: N    pdb-name: N    Scat. Types:   8   7 Mass=14.007000000 B-factor:1.000   
                 Charge=0.000000000          Polarization=0.000000000  [A^3] (considered a chargeless atom and no polarization)  Interactions: yes
                 Anisotropic factor:    0.000 [-] (Relative), Radius:    1.000 [A], Framework-atom:  no
Pseudo Atom[  39] Name N_N2O    Oxidation: +0       Element: N    pdb-name: N    Scat. Types:   8   7 Mass=14.007000000 B-factor:1.000   
                 Charge=0.256000000          Polarization=0.000000000  [A^3] (considered a charged atom and no polarization)  Interactions: yes
                 Anisotropic factor:    0.000 [-] (Relative), Radius:    1.000 [A], Framework-atom:  no
Pseudo Atom[  40] Name O_N2O    Oxidation: +0       Element: O    pdb-name: O    Scat. Types:   9   8 Mass=15.999000000 B-factor:1.000   
                 Charge=-0.128000000         Polarization=0.000000000  [A^3] (considered a charged atom and no polarization)  Interactions: yes
                 Anisotropic factor:    0.000 [-] (Relative), Radius:    1.000 [A], Framework-atom:  no
Pseudo Atom[  41] Name N_NF3    Oxidation: +0       Element: N    pdb-name: N    Scat. Types:   8   7 Mass=14.007000000 B-factor:1.000   
                 Charge=0.084000000          Polarization=0.000000000  [A^3] (considered a charged atom and no polarization)  Interactions: yes
                 Anisotropic factor:    0.000 [-] (Relative), Radius:    1.000 [A], Framework-atom:  no
Pseudo Atom[  42] Name F_NF3    Oxidation: +0       Element: F    pdb-name: F    Scat. Types:  10   9 Mass=18.998000000 B-factor:1.000   
                 Charge=-0.028000000         Polarization=0.000000000  [A^3] (considered a charged atom and no polarization)  Interactions: yes
                 Anisotropic factor:    0.000 [-] (Relative), Radius:    1.000 [A], Framework-atom:  no
Pseudo Atom[  43] Name O_O2     Oxidation: +0       Element: O    pdb-name: O    Scat. Types:   9   8 Mass=15.999000000 B-factor:1.000   
                 Charge=0.000000000          Polarization=0.000000000  [A^3] (considered a chargeless atom and no polarization)  Interactions: yes
                 Anisotropic factor:    0.000 [-] (Relative), Radius:    1.000 [A], Framework-atom:  no
Pseudo Atom[  44] Name P_PF3    Oxidation: +0       Element: P    pdb-name: P    Scat. Types:  16  15 Mass=30.974000000 B-factor:1.000   
                 Charge=0.294000000          Polarization=0.000000000  [A^3] (considered a charged atom and no polarization)  Interactions: yes
                 Anisotropic factor:    0.000 [-] (Relative), Radius:    1.000 [A], Framework-atom:  no
Pseudo Atom[  45] Name F_PF3    Oxidation: +0       Element: F    pdb-name: F    Scat. Types:  10   9 Mass=18.998000000 B-factor:1.000   
                 Charge=-0.098000000         Polarization=0.000000000  [A^3] (considered a charged atom and no polarization)  Interactions: yes
                 Anisotropic factor:    0.000 [-] (Relative), Radius:    1.000 [A], Framework-atom:  no
Pseudo Atom[  46] Name P_PH3    Oxidation: +0       Element: P    pdb-name: P    Scat. Types:  16  15 Mass=30.974000000 B-factor:1.000   
                 Charge=-0.165000000         Polarization=0.000000000  [A^3] (considered a charged atom and no polarization)  Interactions: yes
                 Anisotropic factor:    0.000 [-] (Relative), Radius:    1.000 [A], Framework-atom:  no
Pseudo Atom[  47] Name H_PH3    Oxidation: +0       Element: H    pdb-name: H    Scat. Types:   1   1 Mass=18.998000000 B-factor:1.000   
                 Charge=0.055000000          Polarization=0.000000000  [A^3] (considered a charged atom and no polarization)  Interactions: yes
                 Anisotropic factor:    0.000 [-] (Relative), Radius:    1.000 [A], Framework-atom:  no
Pseudo Atom[  48] Name P_POCl3  Oxidation: +0       Element: P    pdb-name: P    Scat. Types:  16  15 Mass=30.974000000 B-factor:1.000   
                 Charge=0.252000000          Polarization=0.000000000  [A^3] (considered a charged atom and no polarization)  Interactions: yes
                 Anisotropic factor:    0.000 [-] (Relative), Radius:    1.000 [A], Framework-atom:  no
Pseudo Atom[  49] Name O_POCl3  Oxidation: +0       Element: O    pdb-name: O    Scat. Types:   9   8 Mass=15.999000000 B-factor:1.000   
                 Charge=-0.309000000         Polarization=0.000000000  [A^3] (considered a charged atom and no polarization)  Interactions: yes
                 Anisotropic factor:    0.000 [-] (Relative), Radius:    1.000 [A], Framework-atom:  no
Pseudo Atom[  50] Name Cl_POCl3 Oxidation: +0       Element: Cl   pdb-name: Cl   Scat. Types:  18  17 Mass=35.453000000 B-factor:1.000   
                 Charge=-0.019000000         Polarization=0.000000000  [A^3] (considered a charged atom and no polarization)  Interactions: yes
                 Anisotropic factor:    0.000 [-] (Relative), Radius:    1.000 [A], Framework-atom:  no
Pseudo Atom[  51] Name Sb_SbH3  Oxidation: +0       Element: Sb   pdb-name: Sb   Scat. Types:  52  51 Mass=121.760000000 B-factor:1.000   
                 Charge=-0.708000000         Polarization=0.000000000  [A^3] (considered a charged atom and no polarization)  Interactions: yes
                 Anisotropic factor:    0.000 [-] (Relative), Radius:    1.000 [A], Framework-atom:  no
Pseudo Atom[  52] Name H_SbH3   Oxidation: +0       Element: H    pdb-name: H    Scat. Types:   1   1 Mass=1.007800000  B-factor:1.000   
                 Charge=-0.236000000         Polarization=0.000000000  [A^3] (considered a charged atom and no polarization)  Interactions: yes
                 Anisotropic factor:    0.000 [-] (Relative), Radius:    1.000 [A], Framework-atom:  no
Pseudo Atom[  53] Name S_SF6    Oxidation: +0       Element: S    pdb-name: S    Scat. Types:  17  14 Mass=32.065000000 B-factor:1.000   
                 Charge=0.618000000          Polarization=0.000000000  [A^3] (considered a charged atom and no polarization)  Interactions: yes
                 Anisotropic factor:    0.000 [-] (Relative), Radius:    1.000 [A], Framework-atom:  no
Pseudo Atom[  54] Name F_SF6    Oxidation: +0       Element: F    pdb-name: F    Scat. Types:  10   9 Mass=18.998000000 B-factor:1.000   
                 Charge=-0.106000000         Polarization=0.000000000  [A^3] (considered a charged atom and no polarization)  Interactions: yes
                 Anisotropic factor:    0.000 [-] (Relative), Radius:    1.000 [A], Framework-atom:  no
Pseudo Atom[  55] Name Si_SiCl4 Oxidation: +0       Element: Si   pdb-name: Si   Scat. Types:  15  14 Mass=28.086000000 B-factor:1.000   
                 Charge=0.112000000          Polarization=0.000000000  [A^3] (considered a charged atom and no polarization)  Interactions: yes
                 Anisotropic factor:    0.000 [-] (Relative), Radius:    1.000 [A], Framework-atom:  no
Pseudo Atom[  56] Name Cl_SiCl4 Oxidation: +0       Element: Cl   pdb-name: Cl   Scat. Types:  18  17 Mass=35.453000000 B-factor:1.000   
                 Charge=0.028000000          Polarization=0.000000000  [A^3] (considered a charged atom and no polarization)  Interactions: yes
                 Anisotropic factor:    0.000 [-] (Relative), Radius:    1.000 [A], Framework-atom:  no
Pseudo Atom[  57] Name Si_SiF4  Oxidation: +0       Element: Si   pdb-name: Si   Scat. Types:  15  14 Mass=28.086000000 B-factor:1.000   
                 Charge=1.336000000          Polarization=0.000000000  [A^3] (considered a charged atom and no polarization)  Interactions: yes
                 Anisotropic factor:    0.000 [-] (Relative), Radius:    1.000 [A], Framework-atom:  no
Pseudo Atom[  58] Name F_SiF4   Oxidation: +0       Element: F    pdb-name: F    Scat. Types:  10   9 Mass=18.998000000 B-factor:1.000   
                 Charge=-0.334000000         Polarization=0.000000000  [A^3] (considered a charged atom and no polarization)  Interactions: yes
                 Anisotropic factor:    0.000 [-] (Relative), Radius:    1.000 [A], Framework-atom:  no
Pseudo Atom[  59] Name Si_SiH2Cl2 Oxidation: +0       Element: Si   pdb-name: Si   Scat. Types:  15  14 Mass=28.086000000 B-factor:1.000   
                 Charge=0.558000000          Polarization=0.000000000  [A^3] (considered a charged atom and no polarization)  Interactions: yes
                 Anisotropic factor:    0.000 [-] (Relative), Radius:    1.000 [A], Framework-atom:  no
Pseudo Atom[  60] Name H_SiH2Cl2 Oxidation: +0       Element: H    pdb-name: H    Scat. Types:   1   1 Mass=1.007800000  B-factor:1.000   
                 Charge=-0.090000000         Polarization=0.000000000  [A^3] (considered a charged atom and no polarization)  Interactions: yes
                 Anisotropic factor:    0.000 [-] (Relative), Radius:    1.000 [A], Framework-atom:  no
Pseudo Atom[  61] Name Cl_SiH2Cl2 Oxidation: +0       Element: Cl   pdb-name: Cl   Scat. Types:  18  17 Mass=35.453000000 B-factor:1.000   
                 Charge=-0.189000000         Polarization=0.000000000  [A^3] (considered a charged atom and no polarization)  Interactions: yes
                 Anisotropic factor:    0.000 [-] (Relative), Radius:    1.000 [A], Framework-atom:  no
Pseudo Atom[  62] Name Si_SiH4  Oxidation: +0       Element: Si   pdb-name: Si   Scat. Types:  15  14 Mass=28.086000000 B-factor:1.000   
                 Charge=0.776000000          Polarization=0.000000000  [A^3] (considered a charged atom and no polarization)  Interactions: yes
                 Anisotropic factor:    0.000 [-] (Relative), Radius:    1.000 [A], Framework-atom:  no
Pseudo Atom[  63] Name H_SiH4   Oxidation: +0       Element: H    pdb-name: H    Scat. Types:   1   1 Mass=1.007800000  B-factor:1.000   
                 Charge=-0.194000000         Polarization=0.000000000  [A^3] (considered a charged atom and no polarization)  Interactions: yes
                 Anisotropic factor:    0.000 [-] (Relative), Radius:    1.000 [A], Framework-atom:  no
Pseudo Atom[  64] Name Si_SiHCl3 Oxidation: +0       Element: Si   pdb-name: Si   Scat. Types:  15  14 Mass=28.086000000 B-factor:1.000   
                 Charge=0.304000000          Polarization=0.000000000  [A^3] (considered a charged atom and no polarization)  Interactions: yes
                 Anisotropic factor:    0.000 [-] (Relative), Radius:    1.000 [A], Framework-atom:  no
Pseudo Atom[  65] Name H_SiHCl3 Oxidation: +0       Element: H    pdb-name: H    Scat. Types:   1   1 Mass=1.007800000  B-factor:1.000   
                 Charge=-0.001000000         Polarization=0.000000000  [A^3] (considered a charged atom and no polarization)  Interactions: yes
                 Anisotropic factor:    0.000 [-] (Relative), Radius:    1.000 [A], Framework-atom:  no
Pseudo Atom[  66] Name Cl_SiHCl3 Oxidation: +0       Element: Cl   pdb-name: Cl   Scat. Types:  18  17 Mass=35.453000000 B-factor:1.000   
                 Charge=-0.101000000         Polarization=0.000000000  [A^3] (considered a charged atom and no polarization)  Interactions: yes
                 Anisotropic factor:    0.000 [-] (Relative), Radius:    1.000 [A], Framework-atom:  no
Pseudo Atom[  67] Name Ti_TiCl4 Oxidation: +0       Element: Ti   pdb-name: Ti   Scat. Types:  23  22 Mass=47.867000000 B-factor:1.000   
                 Charge=0.000000000          Polarization=0.000000000  [A^3] (considered a chargeless atom and no polarization)  Interactions: yes
                 Anisotropic factor:    0.000 [-] (Relative), Radius:    1.000 [A], Framework-atom:  no
Pseudo Atom[  68] Name Cl_TiCl4 Oxidation: +0       Element: Cl   pdb-name: Cl   Scat. Types:  18  17 Mass=35.453000000 B-factor:1.000   
                 Charge=0.000000000          Polarization=0.000000000  [A^3] (considered a chargeless atom and no polarization)  Interactions: yes
                 Anisotropic factor:    0.000 [-] (Relative), Radius:    1.000 [A], Framework-atom:  no
Pseudo Atom[  69] Name W_WF6    Oxidation: +0       Element: W    pdb-name: W    Scat. Types:  75  74 Mass=183.840000000 B-factor:1.000   
                 Charge=0.000000000          Polarization=0.000000000  [A^3] (considered a chargeless atom and no polarization)  Interactions: yes
                 Anisotropic factor:    0.000 [-] (Relative), Radius:    1.000 [A], Framework-atom:  no
Pseudo Atom[  70] Name F_WF6    Oxidation: +0       Element: F    pdb-name: F    Scat. Types:  10   9 Mass=18.998000000 B-factor:1.000   
                 Charge=0.000000000          Polarization=0.000000000  [A^3] (considered a chargeless atom and no polarization)  Interactions: yes
                 Anisotropic factor:    0.000 [-] (Relative), Radius:    1.000 [A], Framework-atom:  no
Pseudo Atom[  71] Name C_C2H6   Oxidation: +0       Element: C    pdb-name: C    Scat. Types:   7   6 Mass=12.011000000 B-factor:1.000   
                 Charge=-0.006000000         Polarization=0.000000000  [A^3] (considered a charged atom and no polarization)  Interactions: yes
                 Anisotropic factor:    0.000 [-] (Relative), Radius:    1.000 [A], Framework-atom:  no
Pseudo Atom[  72] Name H_C2H6   Oxidation: +0       Element: H    pdb-name: H    Scat. Types:   1   1 Mass=1.007800000  B-factor:1.000   
                 Charge=-0.002000000         Polarization=0.000000000  [A^3] (considered a charged atom and no polarization)  Interactions: yes
                 Anisotropic factor:    0.000 [-] (Relative), Radius:    1.000 [A], Framework-atom:  no
Pseudo Atom[  73] Name C1_C3H8  Oxidation: +0       Element: C    pdb-name: C    Scat. Types:   7   6 Mass=12.011000000 B-factor:1.000   
                 Charge=0.310000000          Polarization=0.000000000  [A^3] (considered a charged atom and no polarization)  Interactions: yes
                 Anisotropic factor:    0.000 [-] (Relative), Radius:    1.000 [A], Framework-atom:  no
Pseudo Atom[  74] Name C2_C3H8  Oxidation: +0       Element: C    pdb-name: C    Scat. Types:   7   6 Mass=12.011000000 B-factor:1.000   
                 Charge=-0.223000000         Polarization=0.000000000  [A^3] (considered a charged atom and no polarization)  Interactions: yes
                 Anisotropic factor:    0.000 [-] (Relative), Radius:    1.000 [A], Framework-atom:  no
Pseudo Atom[  75] Name H1_C3H8  Oxidation: +0       Element: H    pdb-name: H    Scat. Types:   1   1 Mass=1.007800000  B-factor:1.000   
                 Charge=0.043000000          Polarization=0.000000000  [A^3] (considered a charged atom and no polarization)  Interactions: yes
                 Anisotropic factor:    0.000 [-] (Relative), Radius:    1.000 [A], Framework-atom:  no
Pseudo Atom[  76] Name H2_C3H8  Oxidation: +0       Element: H    pdb-name: H    Scat. Types:   1   1 Mass=1.007800000  B-factor:1.000   
                 Charge=-0.061000000         Polarization=0.000000000  [A^3] (considered a charged atom and no polarization)  Interactions: yes
                 Anisotropic factor:    0.000 [-] (Relative), Radius:    1.000 [A], Framework-atom:  no
Pseudo Atom[  77] Name Si0      Oxidation:          Element: Si   pdb-name: Si   Scat. Types:  15  14 Mass=28.085498706 B-factor:0.000   
                 Charge=1.856303000    (av)  Polarization=5.380000000  [A^3] (considered a charged atom and no polarization)  Interactions: yes
                 Anisotropic factor:    0.000 [-] (Absolute), Radius:    1.140 [A], Framework-atom: yes (charge from structure file)
Pseudo Atom[  78] Name Si1      Oxidation:          Element: Si   pdb-name: Si   Scat. Types:  15  14 Mass=28.085498706 B-factor:0.000   
                 Charge=1.856301000    (av)  Polarization=5.380000000  [A^3] (considered a charged atom and no polarization)  Interactions: yes
                 Anisotropic factor:    0.000 [-] (Absolute), Radius:    1.140 [A], Framework-atom: yes (charge from structure file)
Pseudo Atom[  79] Name Si2      Oxidation:          Element: Si   pdb-name: Si   Scat. Types:  15  14 Mass=28.085498706 B-factor:0.000   
                 Charge=1.856301000    (av)  Polarization=5.380000000  [A^3] (considered a charged atom and no polarization)  Interactions: yes
                 Anisotropic factor:    0.000 [-] (Absolute), Radius:    1.140 [A], Framework-atom: yes (charge from structure file)
Pseudo Atom[  80] Name Si3      Oxidation:          Element: Si   pdb-name: Si   Scat. Types:  15  14 Mass=28.085498706 B-factor:0.000   
                 Charge=1.856299000    (av)  Polarization=5.380000000  [A^3] (considered a charged atom and no polarization)  Interactions: yes
                 Anisotropic factor:    0.000 [-] (Absolute), Radius:    1.140 [A], Framework-atom: yes (charge from structure file)
Pseudo Atom[  81] Name Si4      Oxidation:          Element: Si   pdb-name: Si   Scat. Types:  15  14 Mass=28.085498706 B-factor:0.000   
                 Charge=1.856303000    (av)  Polarization=5.380000000  [A^3] (considered a charged atom and no polarization)  Interactions: yes
                 Anisotropic factor:    0.000 [-] (Absolute), Radius:    1.140 [A], Framework-atom: yes (charge from structure file)
Pseudo Atom[  82] Name Si5      Oxidation:          Element: Si   pdb-name: Si   Scat. Types:  15  14 Mass=28.085498706 B-factor:0.000   
                 Charge=1.856301000    (av)  Polarization=5.380000000  [A^3] (considered a charged atom and no polarization)  Interactions: yes
                 Anisotropic factor:    0.000 [-] (Absolute), Radius:    1.140 [A], Framework-atom: yes (charge from structure file)
Pseudo Atom[  83] Name Si6      Oxidation:          Element: Si   pdb-name: Si   Scat. Types:  15  14 Mass=28.085498706 B-factor:0.000   
                 Charge=1.856301000    (av)  Polarization=5.380000000  [A^3] (considered a charged atom and no polarization)  Interactions: yes
                 Anisotropic factor:    0.000 [-] (Absolute), Radius:    1.140 [A], Framework-atom: yes (charge from structure file)
Pseudo Atom[  84] Name Si7      Oxidation:          Element: Si   pdb-name: Si   Scat. Types:  15  14 Mass=28.085498706 B-factor:0.000   
                 Charge=1.856299000    (av)  Polarization=5.380000000  [A^3] (considered a charged atom and no polarization)  Interactions: yes
                 Anisotropic factor:    0.000 [-] (Absolute), Radius:    1.140 [A], Framework-atom: yes (charge from structure file)
Pseudo Atom[  85] Name Si8      Oxidation:          Element: Si   pdb-name: Si   Scat. Types:  15  14 Mass=28.085498706 B-factor:0.000   
                 Charge=1.856299000    (av)  Polarization=5.380000000  [A^3] (considered a charged atom and no polarization)  Interactions: yes
                 Anisotropic factor:    0.000 [-] (Absolute), Radius:    1.140 [A], Framework-atom: yes (charge from structure file)
Pseudo Atom[  86] Name Si9      Oxidation:          Element: Si   pdb-name: Si   Scat. Types:  15  14 Mass=28.085498706 B-factor:0.000   
                 Charge=1.856297000    (av)  Polarization=5.380000000  [A^3] (considered a charged atom and no polarization)  Interactions: yes
                 Anisotropic factor:    0.000 [-] (Absolute), Radius:    1.140 [A], Framework-atom: yes (charge from structure file)
Pseudo Atom[  87] Name Si10     Oxidation:          Element: Si   pdb-name: Si   Scat. Types:  15  14 Mass=28.085498706 B-factor:0.000   
                 Charge=1.856297000    (av)  Polarization=5.380000000  [A^3] (considered a charged atom and no polarization)  Interactions: yes
                 Anisotropic factor:    0.000 [-] (Absolute), Radius:    1.140 [A], Framework-atom: yes (charge from structure file)
Pseudo Atom[  88] Name Si11     Oxidation:          Element: Si   pdb-name: Si   Scat. Types:  15  14 Mass=28.085498706 B-factor:0.000   
                 Charge=1.856295000    (av)  Polarization=5.380000000  [A^3] (considered a charged atom and no polarization)  Interactions: yes
                 Anisotropic factor:    0.000 [-] (Absolute), Radius:    1.140 [A], Framework-atom: yes (charge from structure file)
Pseudo Atom[  89] Name Si12     Oxidation:          Element: Si   pdb-name: Si   Scat. Types:  15  14 Mass=28.085498706 B-factor:0.000   
                 Charge=1.856299000    (av)  Polarization=5.380000000  [A^3] (considered a charged atom and no polarization)  Interactions: yes
                 Anisotropic factor:    0.000 [-] (Absolute), Radius:    1.140 [A], Framework-atom: yes (charge from structure file)
Pseudo Atom[  90] Name Si13     Oxidation:          Element: Si   pdb-name: Si   Scat. Types:  15  14 Mass=28.085498706 B-factor:0.000   
                 Charge=1.856297000    (av)  Polarization=5.380000000  [A^3] (considered a charged atom and no polarization)  Interactions: yes
                 Anisotropic factor:    0.000 [-] (Absolute), Radius:    1.140 [A], Framework-atom: yes (charge from structure file)
Pseudo Atom[  91] Name Si14     Oxidation:          Element: Si   pdb-name: Si   Scat. Types:  15  14 Mass=28.085498706 B-factor:0.000   
                 Charge=1.856297000    (av)  Polarization=5.380000000  [A^3] (considered a charged atom and no polarization)  Interactions: yes
                 Anisotropic factor:    0.000 [-] (Absolute), Radius:    1.140 [A], Framework-atom: yes (charge from structure file)
Pseudo Atom[  92] Name Si15     Oxidation:          Element: Si   pdb-name: Si   Scat. Types:  15  14 Mass=28.085498706 B-factor:0.000   
                 Charge=1.856295000    (av)  Polarization=5.380000000  [A^3] (considered a charged atom and no polarization)  Interactions: yes
                 Anisotropic factor:    0.000 [-] (Absolute), Radius:    1.140 [A], Framework-atom: yes (charge from structure file)
Pseudo Atom[  93] Name Si16     Oxidation:          Element: Si   pdb-name: Si   Scat. Types:  15  14 Mass=28.085498706 B-factor:0.000   
                 Charge=1.829131000    (av)  Polarization=5.380000000  [A^3] (considered a charged atom and no polarization)  Interactions: yes
                 Anisotropic factor:    0.000 [-] (Absolute), Radius:    1.140 [A], Framework-atom: yes (charge from structure file)
Pseudo Atom[  94] Name Si17     Oxidation:          Element: Si   pdb-name: Si   Scat. Types:  15  14 Mass=28.085498706 B-factor:0.000   
                 Charge=1.829133000    (av)  Polarization=5.380000000  [A^3] (considered a charged atom and no polarization)  Interactions: yes
                 Anisotropic factor:    0.000 [-] (Absolute), Radius:    1.140 [A], Framework-atom: yes (charge from structure file)
Pseudo Atom[  95] Name Si18     Oxidation:          Element: Si   pdb-name: Si   Scat. Types:  15  14 Mass=28.085498706 B-factor:0.000   
                 Charge=1.829131000    (av)  Polarization=5.380000000  [A^3] (considered a charged atom and no polarization)  Interactions: yes
                 Anisotropic factor:    0.000 [-] (Absolute), Radius:    1.140 [A], Framework-atom: yes (charge from structure file)
Pseudo Atom[  96] Name Si19     Oxidation:          Element: Si   pdb-name: Si   Scat. Types:  15  14 Mass=28.085498706 B-factor:0.000   
                 Charge=1.829133000    (av)  Polarization=5.380000000  [A^3] (considered a charged atom and no polarization)  Interactions: yes
                 Anisotropic factor:    0.000 [-] (Absolute), Radius:    1.140 [A], Framework-atom: yes (charge from structure file)
Pseudo Atom[  97] Name O20      Oxidation:          Element: O    pdb-name: O    Scat. Types:   9   8 Mass=15.999404927 B-factor:0.000   
                 Charge=-0.889237000   (av)  Polarization=0.802000000  [A^3] (considered a charged atom and no polarization)  Interactions: yes
                 Anisotropic factor:    0.000 [-] (Absolute), Radius:    0.640 [A], Framework-atom: yes (charge from structure file)
Pseudo Atom[  98] Name O21      Oxidation:          Element: O    pdb-name: O    Scat. Types:   9   8 Mass=15.999404927 B-factor:0.000   
                 Charge=-0.889237000   (av)  Polarization=0.802000000  [A^3] (considered a charged atom and no polarization)  Interactions: yes
                 Anisotropic factor:    0.000 [-] (Absolute), Radius:    0.640 [A], Framework-atom: yes (charge from structure file)
Pseudo Atom[  99] Name O22      Oxidation:          Element: O    pdb-name: O    Scat. Types:   9   8 Mass=15.999404927 B-factor:0.000   
                 Charge=-0.889237000   (av)  Polarization=0.802000000  [A^3] (considered a charged atom and no polarization)  Interactions: yes
                 Anisotropic factor:    0.000 [-] (Absolute), Radius:    0.640 [A], Framework-atom: yes (charge from structure file)
Pseudo Atom[ 100] Name O23      Oxidation:          Element: O    pdb-name: O    Scat. Types:   9   8 Mass=15.999404927 B-factor:0.000   
                 Charge=-0.889237000   (av)  Polarization=0.802000000  [A^3] (considered a charged atom and no polarization)  Interactions: yes
                 Anisotropic factor:    0.000 [-] (Absolute), Radius:    0.640 [A], Framework-atom: yes (charge from structure file)
Pseudo Atom[ 101] Name O24      Oxidation:          Element: O    pdb-name: O    Scat. Types:   9   8 Mass=15.999404927 B-factor:0.000   
                 Charge=-0.889237000   (av)  Polarization=0.802000000  [A^3] (considered a charged atom and no polarization)  Interactions: yes
                 Anisotropic factor:    0.000 [-] (Absolute), Radius:    0.640 [A], Framework-atom: yes (charge from structure file)
Pseudo Atom[ 102] Name O25      Oxidation:          Element: O    pdb-name: O    Scat. Types:   9   8 Mass=15.999404927 B-factor:0.000   
                 Charge=-0.889237000   (av)  Polarization=0.802000000  [A^3] (considered a charged atom and no polarization)  Interactions: yes
                 Anisotropic factor:    0.000 [-] (Absolute), Radius:    0.640 [A], Framework-atom: yes (charge from structure file)
Pseudo Atom[ 103] Name O26      Oxidation:          Element: O    pdb-name: O    Scat. Types:   9   8 Mass=15.999404927 B-factor:0.000   
                 Charge=-0.889237000   (av)  Polarization=0.802000000  [A^3] (considered a charged atom and no polarization)  Interactions: yes
                 Anisotropic factor:    0.000 [-] (Absolute), Radius:    0.640 [A], Framework-atom: yes (charge from structure file)
Pseudo Atom[ 104] Name O27      Oxidation:          Element: O    pdb-name: O    Scat. Types:   9   8 Mass=15.999404927 B-factor:0.000   
                 Charge=-0.889237000   (av)  Polarization=0.802000000  [A^3] (considered a charged atom and no polarization)  Interactions: yes
                 Anisotropic factor:    0.000 [-] (Absolute), Radius:    0.640 [A], Framework-atom: yes (charge from structure file)
Pseudo Atom[ 105] Name O28      Oxidation:          Element: O    pdb-name: O    Scat. Types:   9   8 Mass=15.999404927 B-factor:0.000   
                 Charge=-0.889238000   (av)  Polarization=0.802000000  [A^3] (considered a charged atom and no polarization)  Interactions: yes
                 Anisotropic factor:    0.000 [-] (Absolute), Radius:    0.640 [A], Framework-atom: yes (charge from structure file)
Pseudo Atom[ 106] Name O29      Oxidation:          Element: O    pdb-name: O    Scat. Types:   9   8 Mass=15.999404927 B-factor:0.000   
                 Charge=-0.889238000   (av)  Polarization=0.802000000  [A^3] (considered a charged atom and no polarization)  Interactions: yes
                 Anisotropic factor:    0.000 [-] (Absolute), Radius:    0.640 [A], Framework-atom: yes (charge from structure file)
Pseudo Atom[ 107] Name O30      Oxidation:          Element: O    pdb-name: O    Scat. Types:   9   8 Mass=15.999404927 B-factor:0.000   
                 Charge=-0.889238000   (av)  Polarization=0.802000000  [A^3] (considered a charged atom and no polarization)  Interactions: yes
                 Anisotropic factor:    0.000 [-] (Absolute), Radius:    0.640 [A], Framework-atom: yes (charge from structure file)
Pseudo Atom[ 108] Name O31      Oxidation:          Element: O    pdb-name: O    Scat. Types:   9   8 Mass=15.999404927 B-factor:0.000   
                 Charge=-0.889238000   (av)  Polarization=0.802000000  [A^3] (considered a charged atom and no polarization)  Interactions: yes
                 Anisotropic factor:    0.000 [-] (Absolute), Radius:    0.640 [A], Framework-atom: yes (charge from structure file)
Pseudo Atom[ 109] Name O32      Oxidation:          Element: O    pdb-name: O    Scat. Types:   9   8 Mass=15.999404927 B-factor:0.000   
                 Charge=-0.889238000   (av)  Polarization=0.802000000  [A^3] (considered a charged atom and no polarization)  Interactions: yes
                 Anisotropic factor:    0.000 [-] (Absolute), Radius:    0.640 [A], Framework-atom: yes (charge from structure file)
Pseudo Atom[ 110] Name O33      Oxidation:          Element: O    pdb-name: O    Scat. Types:   9   8 Mass=15.999404927 B-factor:0.000   
                 Charge=-0.889238000   (av)  Polarization=0.802000000  [A^3] (considered a charged atom and no polarization)  Interactions: yes
                 Anisotropic factor:    0.000 [-] (Absolute), Radius:    0.640 [A], Framework-atom: yes (charge from structure file)
Pseudo Atom[ 111] Name O34      Oxidation:          Element: O    pdb-name: O    Scat. Types:   9   8 Mass=15.999404927 B-factor:0.000   
                 Charge=-0.889238000   (av)  Polarization=0.802000000  [A^3] (considered a charged atom and no polarization)  Interactions: yes
                 Anisotropic factor:    0.000 [-] (Absolute), Radius:    0.640 [A], Framework-atom: yes (charge from structure file)
Pseudo Atom[ 112] Name O35      Oxidation:          Element: O    pdb-name: O    Scat. Types:   9   8 Mass=15.999404927 B-factor:0.000   
                 Charge=-0.889238000   (av)  Polarization=0.802000000  [A^3] (considered a charged atom and no polarization)  Interactions: yes
                 Anisotropic factor:    0.000 [-] (Absolute), Radius:    0.640 [A], Framework-atom: yes (charge from structure file)
Pseudo Atom[ 113] Name O36      Oxidation:          Element: O    pdb-name: O    Scat. Types:   9   8 Mass=15.999404927 B-factor:0.000   
                 Charge=-0.930924000   (av)  Polarization=0.802000000  [A^3] (considered a charged atom and no polarization)  Interactions: yes
                 Anisotropic factor:    0.000 [-] (Absolute), Radius:    0.640 [A], Framework-atom: yes (charge from structure file)
Pseudo Atom[ 114] Name O37      Oxidation:          Element: O    pdb-name: O    Scat. Types:   9   8 Mass=15.999404927 B-factor:0.000   
                 Charge=-0.930924000   (av)  Polarization=0.802000000  [A^3] (considered a charged atom and no polarization)  Interactions: yes
                 Anisotropic factor:    0.000 [-] (Absolute), Radius:    0.640 [A], Framework-atom: yes (charge from structure file)
Pseudo Atom[ 115] Name O38      Oxidation:          Element: O    pdb-name: O    Scat. Types:   9   8 Mass=15.999404927 B-factor:0.000   
                 Charge=-0.930924000   (av)  Polarization=0.802000000  [A^3] (considered a charged atom and no polarization)  Interactions: yes
                 Anisotropic factor:    0.000 [-] (Absolute), Radius:    0.640 [A], Framework-atom: yes (charge from structure file)
Pseudo Atom[ 116] Name O39      Oxidation:          Element: O    pdb-name: O    Scat. Types:   9   8 Mass=15.999404927 B-factor:0.000   
                 Charge=-0.930924000   (av)  Polarization=0.802000000  [A^3] (considered a charged atom and no polarization)  Interactions: yes
                 Anisotropic factor:    0.000 [-] (Absolute), Radius:    0.640 [A], Framework-atom: yes (charge from structure file)
Pseudo Atom[ 117] Name O40      Oxidation:          Element: O    pdb-name: O    Scat. Types:   9   8 Mass=15.999404927 B-factor:0.000   
                 Charge=-0.930924000   (av)  Polarization=0.802000000  [A^3] (considered a charged atom and no polarization)  Interactions: yes
                 Anisotropic factor:    0.000 [-] (Absolute), Radius:    0.640 [A], Framework-atom: yes (charge from structure file)
Pseudo Atom[ 118] Name O41      Oxidation:          Element: O    pdb-name: O    Scat. Types:   9   8 Mass=15.999404927 B-factor:0.000   
                 Charge=-0.930924000   (av)  Polarization=0.802000000  [A^3] (considered a charged atom and no polarization)  Interactions: yes
                 Anisotropic factor:    0.000 [-] (Absolute), Radius:    0.640 [A], Framework-atom: yes (charge from structure file)
Pseudo Atom[ 119] Name O42      Oxidation:          Element: O    pdb-name: O    Scat. Types:   9   8 Mass=15.999404927 B-factor:0.000   
                 Charge=-0.930924000   (av)  Polarization=0.802000000  [A^3] (considered a charged atom and no polarization)  Interactions: yes
                 Anisotropic factor:    0.000 [-] (Absolute), Radius:    0.640 [A], Framework-atom: yes (charge from structure file)
Pseudo Atom[ 120] Name O43      Oxidation:          Element: O    pdb-name: O    Scat. Types:   9   8 Mass=15.999404927 B-factor:0.000   
                 Charge=-0.930924000   (av)  Polarization=0.802000000  [A^3] (considered a charged atom and no polarization)  Interactions: yes
                 Anisotropic factor:    0.000 [-] (Absolute), Radius:    0.640 [A], Framework-atom: yes (charge from structure file)
Pseudo Atom[ 121] Name O44      Oxidation:          Element: O    pdb-name: O    Scat. Types:   9   8 Mass=15.999404927 B-factor:0.000   
                 Charge=-0.958883000   (av)  Polarization=0.802000000  [A^3] (considered a charged atom and no polarization)  Interactions: yes
                 Anisotropic factor:    0.000 [-] (Absolute), Radius:    0.640 [A], Framework-atom: yes (charge from structure file)
Pseudo Atom[ 122] Name O45      Oxidation:          Element: O    pdb-name: O    Scat. Types:   9   8 Mass=15.999404927 B-factor:0.000   
                 Charge=-0.958883000   (av)  Polarization=0.802000000  [A^3] (considered a charged atom and no polarization)  Interactions: yes
                 Anisotropic factor:    0.000 [-] (Absolute), Radius:    0.640 [A], Framework-atom: yes (charge from structure file)
Pseudo Atom[ 123] Name O46      Oxidation:          Element: O    pdb-name: O    Scat. Types:   9   8 Mass=15.999404927 B-factor:0.000   
                 Charge=-0.958883000   (av)  Polarization=0.802000000  [A^3] (considered a charged atom and no polarization)  Interactions: yes
                 Anisotropic factor:    0.000 [-] (Absolute), Radius:    0.640 [A], Framework-atom: yes (charge from structure file)
Pseudo Atom[ 124] Name O47      Oxidation:          Element: O    pdb-name: O    Scat. Types:   9   8 Mass=15.999404927 B-factor:0.000   
                 Charge=-0.958883000   (av)  Polarization=0.802000000  [A^3] (considered a charged atom and no polarization)  Interactions: yes
                 Anisotropic factor:    0.000 [-] (Absolute), Radius:    0.640 [A], Framework-atom: yes (charge from structure file)
Pseudo Atom[ 125] Name O48      Oxidation:          Element: O    pdb-name: O    Scat. Types:   9   8 Mass=15.999404927 B-factor:0.000   
                 Charge=-0.958883000   (av)  Polarization=0.802000000  [A^3] (considered a charged atom and no polarization)  Interactions: yes
                 Anisotropic factor:    0.000 [-] (Absolute), Radius:    0.640 [A], Framework-atom: yes (charge from structure file)
Pseudo Atom[ 126] Name O49      Oxidation:          Element: O    pdb-name: O    Scat. Types:   9   8 Mass=15.999404927 B-factor:0.000   
                 Charge=-0.958883000   (av)  Polarization=0.802000000  [A^3] (considered a charged atom and no polarization)  Interactions: yes
                 Anisotropic factor:    0.000 [-] (Absolute), Radius:    0.640 [A], Framework-atom: yes (charge from structure file)
Pseudo Atom[ 127] Name O50      Oxidation:          Element: O    pdb-name: O    Scat. Types:   9   8 Mass=15.999404927 B-factor:0.000   
                 Charge=-0.958883000   (av)  Polarization=0.802000000  [A^3] (considered a charged atom and no polarization)  Interactions: yes
                 Anisotropic factor:    0.000 [-] (Absolute), Radius:    0.640 [A], Framework-atom: yes (charge from structure file)
Pseudo Atom[ 128] Name O51      Oxidation:          Element: O    pdb-name: O    Scat. Types:   9   8 Mass=15.999404927 B-factor:0.000   
                 Charge=-0.958883000   (av)  Polarization=0.802000000  [A^3] (considered a charged atom and no polarization)  Interactions: yes
                 Anisotropic factor:    0.000 [-] (Absolute), Radius:    0.640 [A], Framework-atom: yes (charge from structure file)
Pseudo Atom[ 129] Name O52      Oxidation:          Element: O    pdb-name: O    Scat. Types:   9   8 Mass=15.999404927 B-factor:0.000   
                 Charge=-0.958882000   (av)  Polarization=0.802000000  [A^3] (considered a charged atom and no polarization)  Interactions: yes
                 Anisotropic factor:    0.000 [-] (Absolute), Radius:    0.640 [A], Framework-atom: yes (charge from structure file)
Pseudo Atom[ 130] Name O53      Oxidation:          Element: O    pdb-name: O    Scat. Types:   9   8 Mass=15.999404927 B-factor:0.000   
                 Charge=-0.958882000   (av)  Polarization=0.802000000  [A^3] (considered a charged atom and no polarization)  Interactions: yes
                 Anisotropic factor:    0.000 [-] (Absolute), Radius:    0.640 [A], Framework-atom: yes (charge from structure file)
Pseudo Atom[ 131] Name O54      Oxidation:          Element: O    pdb-name: O    Scat. Types:   9   8 Mass=15.999404927 B-factor:0.000   
                 Charge=-0.958882000   (av)  Polarization=0.802000000  [A^3] (considered a charged atom and no polarization)  Interactions: yes
                 Anisotropic factor:    0.000 [-] (Absolute), Radius:    0.640 [A], Framework-atom: yes (charge from structure file)
Pseudo Atom[ 132] Name O55      Oxidation:          Element: O    pdb-name: O    Scat. Types:   9   8 Mass=15.999404927 B-factor:0.000   
                 Charge=-0.958882000   (av)  Polarization=0.802000000  [A^3] (considered a charged atom and no polarization)  Interactions: yes
                 Anisotropic factor:    0.000 [-] (Absolute), Radius:    0.640 [A], Framework-atom: yes (charge from structure file)
Pseudo Atom[ 133] Name O56      Oxidation:          Element: O    pdb-name: O    Scat. Types:   9   8 Mass=15.999404927 B-factor:0.000   
                 Charge=-0.958882000   (av)  Polarization=0.802000000  [A^3] (considered a charged atom and no polarization)  Interactions: yes
                 Anisotropic factor:    0.000 [-] (Absolute), Radius:    0.640 [A], Framework-atom: yes (charge from structure file)
Pseudo Atom[ 134] Name O57      Oxidation:          Element: O    pdb-name: O    Scat. Types:   9   8 Mass=15.999404927 B-factor:0.000   
                 Charge=-0.958882000   (av)  Polarization=0.802000000  [A^3] (considered a charged atom and no polarization)  Interactions: yes
                 Anisotropic factor:    0.000 [-] (Absolute), Radius:    0.640 [A], Framework-atom: yes (charge from structure file)
Pseudo Atom[ 135] Name O58      Oxidation:          Element: O    pdb-name: O    Scat. Types:   9   8 Mass=15.999404927 B-factor:0.000   
                 Charge=-0.958882000   (av)  Polarization=0.802000000  [A^3] (considered a charged atom and no polarization)  Interactions: yes
                 Anisotropic factor:    0.000 [-] (Absolute), Radius:    0.640 [A], Framework-atom: yes (charge from structure file)
Pseudo Atom[ 136] Name O59      Oxidation:          Element: O    pdb-name: O    Scat. Types:   9   8 Mass=15.999404927 B-factor:0.000   
                 Charge=-0.958882000   (av)  Polarization=0.802000000  [A^3] (considered a charged atom and no polarization)  Interactions: yes
                 Anisotropic factor:    0.000 [-] (Absolute), Radius:    0.640 [A], Framework-atom: yes (charge from structure file)


Forcefield: Local
===========================================================================
Minimal distance: 1
CutOff VDW : 14.000000 (196.000000)
CutOff VDW switching on: 12.600000 (158.760000)
CutOff charge-charge : 12.000000 (144.000000)
CutOff charge-charge switching on: 7.800000 (60.840000)
CutOff charge-bonddipole : 12.000000 (144.000000)
CutOff charge-bondipole switching on: 8.400000 (70.560000)
CutOff bonddipole-bonddipole : 12.000000 (144.000000)
CutOff bonddipole-bondipole switching on: 9.000000 (81.000000)
Polarization is neglected
TailCorrections are used
All potentials are unshifted !!!!!!

General mixing rule: Lorentz-Berthelot mixing rules are used FIRST for cross terms
0 cross terms are overwritten using the individual mixing rules from the file 'force_field_mixing_rules.def'
and then 0 terms are overwritten using the specific interactions from the file 'force_field.def'

The force field and all the interactions:
     He -      He [LENNARD_JONES] p_0/k_B:  22.14289 [K], p_1: 2.57113 [A], shift/k_B:   0.00000000 [K], tailcorrection: yes
     He - As_AsF3 [LENNARD_JONES] p_0/k_B:  58.67961 [K], p_1: 3.16982 [A], shift/k_B:   0.00000000 [K], tailcorrection: yes
     He -  F_AsF3 [LENNARD_JONES] p_0/k_B:  23.61164 [K], p_1: 2.78406 [A], shift/k_B:   0.00000000 [K], tailcorrection: yes
     He - As_AsH3 [LENNARD_JONES] p_0/k_B:  58.67961 [K], p_1: 3.16982 [A], shift/k_B:   0.00000000 [K], tailcorrection: yes
     He -  H_AsH3 [LENNARD_JONES] p_0/k_B:  22.14289 [K], p_1: 2.57113 [A], shift/k_B:   0.00000000 [K], tailcorrection: yes
     He -  B_B2H6 [LENNARD_JONES] p_0/k_B:  44.78620 [K], p_1: 3.10434 [A], shift/k_B:   0.00000000 [K], tailcorrection: yes
     He - H1_B2H6 [LENNARD_JONES] p_0/k_B:  22.14289 [K], p_1: 2.57113 [A], shift/k_B:   0.00000000 [K], tailcorrection: yes
     He - H2_B2H6 [LENNARD_JONES] p_0/k_B:  22.14289 [K], p_1: 2.57113 [A], shift/k_B:   0.00000000 [K], tailcorrection: yes
     He -  B_BCl3 [LENNARD_JONES] p_0/k_B:  44.78620 [K], p_1: 3.10434 [A], shift/k_B:   0.00000000 [K], tailcorrection: yes
     He - Cl_BCl3 [LENNARD_JONES] p_0/k_B:  34.21652 [K], p_1: 3.00099 [A], shift/k_B:   0.00000000 [K], tailcorrection: yes
     He -  C_C2F6 [LENNARD_JONES] p_0/k_B:  34.21652 [K], p_1: 3.00099 [A], shift/k_B:   0.00000000 [K], tailcorrection: yes
     He -  F_C2F6 [LENNARD_JONES] p_0/k_B:  23.61164 [K], p_1: 2.78406 [A], shift/k_B:   0.00000000 [K], tailcorrection: yes
     He -   C_CF4 [LENNARD_JONES] p_0/k_B:  34.21652 [K], p_1: 3.00099 [A], shift/k_B:   0.00000000 [K], tailcorrection: yes
     He -   F_CF4 [LENNARD_JONES] p_0/k_B:  23.61164 [K], p_1: 2.78406 [A], shift/k_B:   0.00000000 [K], tailcorrection: yes
     He - C_CH2Cl2 [LENNARD_JONES] p_0/k_B:  34.21652 [K], p_1: 3.00099 [A], shift/k_B:   0.00000000 [K], tailcorrection: yes
     He - H_CH2Cl2 [LENNARD_JONES] p_0/k_B:  22.14289 [K], p_1: 2.57113 [A], shift/k_B:   0.00000000 [K], tailcorrection: yes
     He - Cl_CH2Cl2 [LENNARD_JONES] p_0/k_B:  34.21652 [K], p_1: 3.00099 [A], shift/k_B:   0.00000000 [K], tailcorrection: yes
     He -   C_CH4 [LENNARD_JONES] p_0/k_B:  34.21652 [K], p_1: 3.00099 [A], shift/k_B:   0.00000000 [K], tailcorrection: yes
     He -   H_CH4 [LENNARD_JONES] p_0/k_B:  22.14289 [K], p_1: 2.57113 [A], shift/k_B:   0.00000000 [K], tailcorrection: yes
     He -  C_CHF3 [LENNARD_JONES] p_0/k_B:  34.21652 [K], p_1: 3.00099 [A], shift/k_B:   0.00000000 [K], tailcorrection: yes
     He -  H_CHF3 [LENNARD_JONES] p_0/k_B:  22.14289 [K], p_1: 2.57113 [A], shift/k_B:   0.00000000 [K], tailcorrection: yes
     He -  F_CHF3 [LENNARD_JONES] p_0/k_B:  23.61164 [K], p_1: 2.78406 [A], shift/k_B:   0.00000000 [K], tailcorrection: yes
     He -  Cl_Cl2 [LENNARD_JONES] p_0/k_B:  34.21652 [K], p_1: 3.00099 [A], shift/k_B:   0.00000000 [K], tailcorrection: yes
     He - Cl_ClF3 [LENNARD_JONES] p_0/k_B:  34.21652 [K], p_1: 3.00099 [A], shift/k_B:   0.00000000 [K], tailcorrection: yes
     He -  F_ClF3 [LENNARD_JONES] p_0/k_B:  23.61164 [K], p_1: 2.78406 [A], shift/k_B:   0.00000000 [K], tailcorrection: yes
     He -    C_CO [LENNARD_JONES] p_0/k_B:  34.21652 [K], p_1: 3.00099 [A], shift/k_B:   0.00000000 [K], tailcorrection: yes
     He -    O_CO [LENNARD_JONES] p_0/k_B:  25.86526 [K], p_1: 2.84464 [A], shift/k_B:   0.00000000 [K], tailcorrection: yes
     He -   C_CO2 [LENNARD_JONES] p_0/k_B:  34.21652 [K], p_1: 3.00099 [A], shift/k_B:   0.00000000 [K], tailcorrection: yes
     He -   O_CO2 [LENNARD_JONES] p_0/k_B:  25.86526 [K], p_1: 2.84464 [A], shift/k_B:   0.00000000 [K], tailcorrection: yes
     He -    F_F2 [LENNARD_JONES] p_0/k_B:  23.61164 [K], p_1: 2.78406 [A], shift/k_B:   0.00000000 [K], tailcorrection: yes
     He - Ge_GeH4 [LENNARD_JONES] p_0/k_B:  65.00710 [K], p_1: 3.19209 [A], shift/k_B:   0.00000000 [K], tailcorrection: yes
     He -  H_GeH4 [LENNARD_JONES] p_0/k_B:  22.14289 [K], p_1: 2.57113 [A], shift/k_B:   0.00000000 [K], tailcorrection: yes
     He -    H_H2 [LENNARD_JONES] p_0/k_B:  22.14289 [K], p_1: 2.57113 [A], shift/k_B:   0.00000000 [K], tailcorrection: yes
     He -   O_H2O [LENNARD_JONES] p_0/k_B:  25.86526 [K], p_1: 2.84464 [A], shift/k_B:   0.00000000 [K], tailcorrection: yes
     He -   H_H2O [LENNARD_JONES] p_0/k_B:  22.14289 [K], p_1: 2.57113 [A], shift/k_B:   0.00000000 [K], tailcorrection: yes
     He -   H_HBr [LENNARD_JONES] p_0/k_B:  22.14289 [K], p_1: 2.57113 [A], shift/k_B:   0.00000000 [K], tailcorrection: yes
     He -  Br_HBr [LENNARD_JONES] p_0/k_B:  52.90272 [K], p_1: 3.15155 [A], shift/k_B:   0.00000000 [K], tailcorrection: yes
     He -    N_N2 [LENNARD_JONES] p_0/k_B:  27.73740 [K], p_1: 2.91591 [A], shift/k_B:   0.00000000 [K], tailcorrection: yes
     He -   N_N2O [LENNARD_JONES] p_0/k_B:  27.73740 [K], p_1: 2.91591 [A], shift/k_B:   0.00000000 [K], tailcorrection: yes
     He -   O_N2O [LENNARD_JONES] p_0/k_B:  25.86526 [K], p_1: 2.84464 [A], shift/k_B:   0.00000000 [K], tailcorrection: yes
     He -   N_NF3 [LENNARD_JONES] p_0/k_B:  27.73740 [K], p_1: 2.91591 [A], shift/k_B:   0.00000000 [K], tailcorrection: yes
     He -   F_NF3 [LENNARD_JONES] p_0/k_B:  23.61164 [K], p_1: 2.78406 [A], shift/k_B:   0.00000000 [K], tailcorrection: yes
     He -    O_O2 [LENNARD_JONES] p_0/k_B:  25.86526 [K], p_1: 2.84464 [A], shift/k_B:   0.00000000 [K], tailcorrection: yes
     He -   P_PF3 [LENNARD_JONES] p_0/k_B:  58.31645 [K], p_1: 3.13285 [A], shift/k_B:   0.00000000 [K], tailcorrection: yes
     He -   F_PF3 [LENNARD_JONES] p_0/k_B:  23.61164 [K], p_1: 2.78406 [A], shift/k_B:   0.00000000 [K], tailcorrection: yes
     He -   P_PH3 [LENNARD_JONES] p_0/k_B:  58.31645 [K], p_1: 3.13285 [A], shift/k_B:   0.00000000 [K], tailcorrection: yes
     He -   H_PH3 [LENNARD_JONES] p_0/k_B:  22.14289 [K], p_1: 2.57113 [A], shift/k_B:   0.00000000 [K], tailcorrection: yes
     He - P_POCl3 [LENNARD_JONES] p_0/k_B:  58.31645 [K], p_1: 3.13285 [A], shift/k_B:   0.00000000 [K], tailcorrection: yes
     He - O_POCl3 [LENNARD_JONES] p_0/k_B:  25.86526 [K], p_1: 2.84464 [A], shift/k_B:   0.00000000 [K], tailcorrection: yes
     He - Cl_POCl3 [LENNARD_JONES] p_0/k_B:  34.21652 [K], p_1: 3.00099 [A], shift/k_B:   0.00000000 [K], tailcorrection: yes
     He - Sb_SbH3 [LENNARD_JONES] p_0/k_B:  70.73258 [K], p_1: 3.25445 [A], shift/k_B:   0.00000000 [K], tailcorrection: yes
     He -  H_SbH3 [LENNARD_JONES] p_0/k_B:  22.14289 [K], p_1: 2.57113 [A], shift/k_B:   0.00000000 [K], tailcorrection: yes
     He -   S_SF6 [LENNARD_JONES] p_0/k_B:  55.27344 [K], p_1: 3.08296 [A], shift/k_B:   0.00000000 [K], tailcorrection: yes
     He -   F_SF6 [LENNARD_JONES] p_0/k_B:  23.61164 [K], p_1: 2.78406 [A], shift/k_B:   0.00000000 [K], tailcorrection: yes
     He - Si_SiCl4 [LENNARD_JONES] p_0/k_B:  66.95056 [K], p_1: 3.19877 [A], shift/k_B:   0.00000000 [K], tailcorrection: yes
     He - Cl_SiCl4 [LENNARD_JONES] p_0/k_B:  34.21652 [K], p_1: 3.00099 [A], shift/k_B:   0.00000000 [K], tailcorrection: yes
     He - Si_SiF4 [LENNARD_JONES] p_0/k_B:  66.95056 [K], p_1: 3.19877 [A], shift/k_B:   0.00000000 [K], tailcorrection: yes
     He -  F_SiF4 [LENNARD_JONES] p_0/k_B:  23.61164 [K], p_1: 2.78406 [A], shift/k_B:   0.00000000 [K], tailcorrection: yes
     He - Si_SiH2Cl2 [LENNARD_JONES] p_0/k_B:  66.95056 [K], p_1: 3.19877 [A], shift/k_B:   0.00000000 [K], tailcorrection: yes
     He - H_SiH2Cl2 [LENNARD_JONES] p_0/k_B:  22.14289 [K], p_1: 2.57113 [A], shift/k_B:   0.00000000 [K], tailcorrection: yes
     He - Cl_SiH2Cl2 [LENNARD_JONES] p_0/k_B:  34.21652 [K], p_1: 3.00099 [A], shift/k_B:   0.00000000 [K], tailcorrection: yes
     He - Si_SiH4 [LENNARD_JONES] p_0/k_B:  66.95056 [K], p_1: 3.19877 [A], shift/k_B:   0.00000000 [K], tailcorrection: yes
     He -  H_SiH4 [LENNARD_JONES] p_0/k_B:  22.14289 [K], p_1: 2.57113 [A], shift/k_B:   0.00000000 [K], tailcorrection: yes
     He - Si_SiHCl3 [LENNARD_JONES] p_0/k_B:  66.95056 [K], p_1: 3.19877 [A], shift/k_B:   0.00000000 [K], tailcorrection: yes
     He - H_SiHCl3 [LENNARD_JONES] p_0/k_B:  22.14289 [K], p_1: 2.57113 [A], shift/k_B:   0.00000000 [K], tailcorrection: yes
     He - Cl_SiHCl3 [LENNARD_JONES] p_0/k_B:  34.21652 [K], p_1: 3.00099 [A], shift/k_B:   0.00000000 [K], tailcorrection: yes
     He - Ti_TiCl4 [LENNARD_JONES] p_0/k_B:  13.76323 [K], p_1: 2.69987 [A], shift/k_B:   0.00000000 [K], tailcorrection: yes
     He - Cl_TiCl4 [LENNARD_JONES] p_0/k_B:  34.21652 [K], p_1: 3.00099 [A], shift/k_B:   0.00000000 [K], tailcorrection: yes
     He -   W_WF6 [LENNARD_JONES] p_0/k_B:  27.33245 [K], p_1: 2.65265 [A], shift/k_B:   0.00000000 [K], tailcorrection: yes
     He -   F_WF6 [LENNARD_JONES] p_0/k_B:  23.61164 [K], p_1: 2.78406 [A], shift/k_B:   0.00000000 [K], tailcorrection: yes
     He -  C_C2H6 [LENNARD_JONES] p_0/k_B:  34.21652 [K], p_1: 3.00099 [A], shift/k_B:   0.00000000 [K], tailcorrection: yes
     He -  H_C2H6 [LENNARD_JONES] p_0/k_B:  22.14289 [K], p_1: 2.57113 [A], shift/k_B:   0.00000000 [K], tailcorrection: yes
     He - C1_C3H8 [LENNARD_JONES] p_0/k_B:  34.21652 [K], p_1: 3.00099 [A], shift/k_B:   0.00000000 [K], tailcorrection: yes
     He - C2_C3H8 [LENNARD_JONES] p_0/k_B:  34.21652 [K], p_1: 3.00099 [A], shift/k_B:   0.00000000 [K], tailcorrection: yes
     He - H1_C3H8 [LENNARD_JONES] p_0/k_B:  22.14289 [K], p_1: 2.57113 [A], shift/k_B:   0.00000000 [K], tailcorrection: yes
     He - H2_C3H8 [LENNARD_JONES] p_0/k_B:  22.14289 [K], p_1: 2.57113 [A], shift/k_B:   0.00000000 [K], tailcorrection: yes
     He -     Si0 [LENNARD_JONES] p_0/k_B:  66.95056 [K], p_1: 3.19877 [A], shift/k_B:   0.00000000 [K], tailcorrection: yes
     He -     Si1 [LENNARD_JONES] p_0/k_B:  66.95056 [K], p_1: 3.19877 [A], shift/k_B:   0.00000000 [K], tailcorrection: yes
     He -     Si2 [LENNARD_JONES] p_0/k_B:  66.95056 [K], p_1: 3.19877 [A], shift/k_B:   0.00000000 [K], tailcorrection: yes
     He -     Si3 [LENNARD_JONES] p_0/k_B:  66.95056 [K], p_1: 3.19877 [A], shift/k_B:   0.00000000 [K], tailcorrection: yes
     He -     Si4 [LENNARD_JONES] p_0/k_B:  66.95056 [K], p_1: 3.19877 [A], shift/k_B:   0.00000000 [K], tailcorrection: yes
     He -     Si5 [LENNARD_JONES] p_0/k_B:  66.95056 [K], p_1: 3.19877 [A], shift/k_B:   0.00000000 [K], tailcorrection: yes
     He -     Si6 [LENNARD_JONES] p_0/k_B:  66.95056 [K], p_1: 3.19877 [A], shift/k_B:   0.00000000 [K], tailcorrection: yes
     He -     Si7 [LENNARD_JONES] p_0/k_B:  66.95056 [K], p_1: 3.19877 [A], shift/k_B:   0.00000000 [K], tailcorrection: yes
     He -     Si8 [LENNARD_JONES] p_0/k_B:  66.95056 [K], p_1: 3.19877 [A], shift/k_B:   0.00000000 [K], tailcorrection: yes
     He -     Si9 [LENNARD_JONES] p_0/k_B:  66.95056 [K], p_1: 3.19877 [A], shift/k_B:   0.00000000 [K], tailcorrection: yes
     He -    Si10 [LENNARD_JONES] p_0/k_B:  66.95056 [K], p_1: 3.19877 [A], shift/k_B:   0.00000000 [K], tailcorrection: yes
     He -    Si11 [LENNARD_JONES] p_0/k_B:  66.95056 [K], p_1: 3.19877 [A], shift/k_B:   0.00000000 [K], tailcorrection: yes
     He -    Si12 [LENNARD_JONES] p_0/k_B:  66.95056 [K], p_1: 3.19877 [A], shift/k_B:   0.00000000 [K], tailcorrection: yes
     He -    Si13 [LENNARD_JONES] p_0/k_B:  66.95056 [K], p_1: 3.19877 [A], shift/k_B:   0.00000000 [K], tailcorrection: yes
     He -    Si14 [LENNARD_JONES] p_0/k_B:  66.95056 [K], p_1: 3.19877 [A], shift/k_B:   0.00000000 [K], tailcorrection: yes
     He -    Si15 [LENNARD_JONES] p_0/k_B:  66.95056 [K], p_1: 3.19877 [A], shift/k_B:   0.00000000 [K], tailcorrection: yes
     He -    Si16 [LENNARD_JONES] p_0/k_B:  66.95056 [K], p_1: 3.19877 [A], shift/k_B:   0.00000000 [K], tailcorrection: yes
     He -    Si17 [LENNARD_JONES] p_0/k_B:  66.95056 [K], p_1: 3.19877 [A], shift/k_B:   0.00000000 [K], tailcorrection: yes
     He -    Si18 [LENNARD_JONES] p_0/k_B:  66.95056 [K], p_1: 3.19877 [A], shift/k_B:   0.00000000 [K], tailcorrection: yes
     He -    Si19 [LENNARD_JONES] p_0/k_B:  66.95056 [K], p_1: 3.19877 [A], shift/k_B:   0.00000000 [K], tailcorrection: yes
     He -     O20 [LENNARD_JONES] p_0/k_B:  25.86526 [K], p_1: 2.84464 [A], shift/k_B:   0.00000000 [K], tailcorrection: yes
     He -     O21 [LENNARD_JONES] p_0/k_B:  25.86526 [K], p_1: 2.84464 [A], shift/k_B:   0.00000000 [K], tailcorrection: yes
     He -     O22 [LENNARD_JONES] p_0/k_B:  25.86526 [K], p_1: 2.84464 [A], shift/k_B:   0.00000000 [K], tailcorrection: yes
     He -     O23 [LENNARD_JONES] p_0/k_B:  25.86526 [K], p_1: 2.84464 [A], shift/k_B:   0.00000000 [K], tailcorrection: yes
     He -     O24 [LENNARD_JONES] p_0/k_B:  25.86526 [K], p_1: 2.84464 [A], shift/k_B:   0.00000000 [K], tailcorrection: yes
     He -     O25 [LENNARD_JONES] p_0/k_B:  25.86526 [K], p_1: 2.84464 [A], shift/k_B:   0.00000000 [K], tailcorrection: yes
     He -     O26 [LENNARD_JONES] p_0/k_B:  25.86526 [K], p_1: 2.84464 [A], shift/k_B:   0.00000000 [K], tailcorrection: yes
     He -     O27 [LENNARD_JONES] p_0/k_B:  25.86526 [K], p_1: 2.84464 [A], shift/k_B:   0.00000000 [K], tailcorrection: yes
     He -     O28 [LENNARD_JONES] p_0/k_B:  25.86526 [K], p_1: 2.84464 [A], shift/k_B:   0.00000000 [K], tailcorrection: yes
     He -     O29 [LENNARD_JONES] p_0/k_B:  25.86526 [K], p_1: 2.84464 [A], shift/k_B:   0.00000000 [K], tailcorrection: yes
     He -     O30 [LENNARD_JONES] p_0/k_B:  25.86526 [K], p_1: 2.84464 [A], shift/k_B:   0.00000000 [K], tailcorrection: yes
     He -     O31 [LENNARD_JONES] p_0/k_B:  25.86526 [K], p_1: 2.84464 [A], shift/k_B:   0.00000000 [K], tailcorrection: yes
     He -     O32 [LENNARD_JONES] p_0/k_B:  25.86526 [K], p_1: 2.84464 [A], shift/k_B:   0.00000000 [K], tailcorrection: yes
     He -     O33 [LENNARD_JONES] p_0/k_B:  25.86526 [K], p_1: 2.84464 [A], shift/k_B:   0.00000000 [K], tailcorrection: yes
     He -     O34 [LENNARD_JONES] p_0/k_B:  25.86526 [K], p_1: 2.84464 [A], shift/k_B:   0.00000000 [K], tailcorrection: yes
     He -     O35 [LENNARD_JONES] p_0/k_B:  25.86526 [K], p_1: 2.84464 [A], shift/k_B:   0.00000000 [K], tailcorrection: yes
     He -     O36 [LENNARD_JONES] p_0/k_B:  25.86526 [K], p_1: 2.84464 [A], shift/k_B:   0.00000000 [K], tailcorrection: yes
     He -     O37 [LENNARD_JONES] p_0/k_B:  25.86526 [K], p_1: 2.84464 [A], shift/k_B:   0.00000000 [K], tailcorrection: yes
     He -     O38 [LENNARD_JONES] p_0/k_B:  25.86526 [K], p_1: 2.84464 [A], shift/k_B:   0.00000000 [K], tailcorrection: yes
     He -     O39 [LENNARD_JONES] p_0/k_B:  25.86526 [K], p_1: 2.84464 [A], shift/k_B:   0.00000000 [K], tailcorrection: yes
     He -     O40 [LENNARD_JONES] p_0/k_B:  25.86526 [K], p_1: 2.84464 [A], shift/k_B:   0.00000000 [K], tailcorrection: yes
     He -     O41 [LENNARD_JONES] p_0/k_B:  25.86526 [K], p_1: 2.84464 [A], shift/k_B:   0.00000000 [K], tailcorrection: yes
     He -     O42 [LENNARD_JONES] p_0/k_B:  25.86526 [K], p_1: 2.84464 [A], shift/k_B:   0.00000000 [K], tailcorrection: yes
[...]
	------------------------------------------------------------------------------
	Average              0.00000 [K] +/-            0.00000 [K]

Average Cation Bend angle inversion energy:
===========================================
	Block[ 0]            0.00000 [K]
	Block[ 1]            0.00000 [K]
	Block[ 2]            0.00000 [K]
	Block[ 3]            0.00000 [K]
	Block[ 4]            0.00000 [K]
	------------------------------------------------------------------------------
	Average              0.00000 [K] +/-            0.00000 [K]

Average Cation Torsion energy:
==============================
	Block[ 0]            0.00000 [K]
	Block[ 1]            0.00000 [K]
	Block[ 2]            0.00000 [K]
	Block[ 3]            0.00000 [K]
	Block[ 4]            0.00000 [K]
	------------------------------------------------------------------------------
	Average              0.00000 [K] +/-            0.00000 [K]

Average Cation Improper Torsion energy:
=======================================
	Block[ 0]            0.00000 [K]
	Block[ 1]            0.00000 [K]
	Block[ 2]            0.00000 [K]
	Block[ 3]            0.00000 [K]
	Block[ 4]            0.00000 [K]
	------------------------------------------------------------------------------
	Average              0.00000 [K] +/-            0.00000 [K]

Average Cation Bond-Bond cross term energy:
=================================================
	Block[ 0]            0.00000 [K]
	Block[ 1]            0.00000 [K]
	Block[ 2]            0.00000 [K]
	Block[ 3]            0.00000 [K]
	Block[ 4]            0.00000 [K]
	------------------------------------------------------------------------------
	Average              0.00000 [K] +/-            0.00000 [K]

Average Cation Bend-Bend cross term energy:
===========================================
	Block[ 0]            0.00000 [K]
	Block[ 1]            0.00000 [K]
	Block[ 2]            0.00000 [K]
	Block[ 3]            0.00000 [K]
	Block[ 4]            0.00000 [K]
	------------------------------------------------------------------------------
	Average              0.00000 [K] +/-            0.00000 [K]

Average Cation Bond-Bend cross term energy:
==============================================
	Block[ 0]            0.00000 [K]
	Block[ 1]            0.00000 [K]
	Block[ 2]            0.00000 [K]
	Block[ 3]            0.00000 [K]
	Block[ 4]            0.00000 [K]
	------------------------------------------------------------------------------
	Average              0.00000 [K] +/-            0.00000 [K]

Average Cation Bond-Torsion cross term energy:
==============================================
	Block[ 0]            0.00000 [K]
	Block[ 1]            0.00000 [K]
	Block[ 2]            0.00000 [K]
	Block[ 3]            0.00000 [K]
	Block[ 4]            0.00000 [K]
	------------------------------------------------------------------------------
	Average              0.00000 [K] +/-            0.00000 [K]

Average Cation Bend-Torsion cross term energy:
==============================================
	Block[ 0]            0.00000 [K]
	Block[ 1]            0.00000 [K]
	Block[ 2]            0.00000 [K]
	Block[ 3]            0.00000 [K]
	Block[ 4]            0.00000 [K]
	------------------------------------------------------------------------------
	Average              0.00000 [K] +/-            0.00000 [K]

Average Cation Intra Van der Waals energy:
==========================================
	Block[ 0]            0.00000 [K]
	Block[ 1]            0.00000 [K]
	Block[ 2]            0.00000 [K]
	Block[ 3]            0.00000 [K]
	Block[ 4]            0.00000 [K]
	------------------------------------------------------------------------------
	Average              0.00000 [K] +/-            0.00000 [K]

Average Cation Intra charge-charge Coulomb energy:
====================================
	Block[ 0]            0.00000 [K]
	Block[ 1]            0.00000 [K]
	Block[ 2]            0.00000 [K]
	Block[ 3]            0.00000 [K]
	Block[ 4]            0.00000 [K]
	------------------------------------------------------------------------------
	Average              0.00000 [K] +/-            0.00000 [K]

Average Cation Intra charge-bonddipole Coulomb energy:
====================================
	Block[ 0]            0.00000 [K]
	Block[ 1]            0.00000 [K]
	Block[ 2]            0.00000 [K]
	Block[ 3]            0.00000 [K]
	Block[ 4]            0.00000 [K]
	------------------------------------------------------------------------------
	Average              0.00000 [K] +/-            0.00000 [K]

Average Cation Intra bonddipole-bonddipole Coulomb energy:
====================================
	Block[ 0]            0.00000 [K]
	Block[ 1]            0.00000 [K]
	Block[ 2]            0.00000 [K]
	Block[ 3]            0.00000 [K]
	Block[ 4]            0.00000 [K]
	------------------------------------------------------------------------------
	Average              0.00000 [K] +/-            0.00000 [K]

Average Host-Host energy:
=========================
	Block[ 0] 0.00000            Van der Waals: 0.00000            Coulomb: 0.00000            [K]
	Block[ 1] 0.00000            Van der Waals: 0.00000            Coulomb: 0.00000            [K]
	Block[ 2] 0.00000            Van der Waals: 0.00000            Coulomb: 0.00000            [K]
	Block[ 3] 0.00000            Van der Waals: 0.00000            Coulomb: 0.00000            [K]
	Block[ 4] 0.00000            Van der Waals: 0.00000            Coulomb: 0.00000            [K]
	------------------------------------------------------------------------------
	Average   0.00000            Van der Waals: 0.000000           Coulomb: 0.00000            [K]
	      +/- 0.00000                       +/- 0.000000                +/- 0.00000            [K]

Average Adsorbate-Adsorbate energy:
===================================
	Block[ 0] -2773.84226        Van der Waals: -2771.74705        Coulomb: -2.09522           [K]
	Block[ 1] -2792.78533        Van der Waals: -2786.55854        Coulomb: -6.22680           [K]
	Block[ 2] -2962.11047        Van der Waals: -2944.06873        Coulomb: -18.04174          [K]
	Block[ 3] -4255.67151        Van der Waals: -4233.78231        Coulomb: -21.88920          [K]
	Block[ 4] -4751.61627        Van der Waals: -4711.47426        Coulomb: -40.14200          [K]
	------------------------------------------------------------------------------
	Average   -3507.20517        Van der Waals: -3489.526178       Coulomb: -17.67899          [K]
	      +/- 1153.64527                    +/- 1136.799714             +/- 18.58522           [K]

Average Cation-Cation energy:
=============================
	Block[ 0] 0.00000            Van der Waals: 0.00000            Coulomb: 0.00000            [K]
	Block[ 1] 0.00000            Van der Waals: 0.00000            Coulomb: 0.00000            [K]
	Block[ 2] 0.00000            Van der Waals: 0.00000            Coulomb: 0.00000            [K]
	Block[ 3] 0.00000            Van der Waals: 0.00000            Coulomb: 0.00000            [K]
	Block[ 4] 0.00000            Van der Waals: 0.00000            Coulomb: 0.00000            [K]
	------------------------------------------------------------------------------
	Average   0.00000            Van der Waals: 0.000000           Coulomb: 0.00000            [K]
	      +/- 0.00000                       +/- 0.000000                +/- 0.00000            [K]

Average Host-Adsorbate energy:
==============================
	Block[ 0] -98827.63278       Van der Waals: -99287.60771       Coulomb: 459.97492          [K]
	Block[ 1] -103914.23862      Van der Waals: -104489.47215      Coulomb: 575.23353          [K]
	Block[ 2] -106126.86913      Van der Waals: -106873.95499      Coulomb: 747.08586          [K]
	Block[ 3] -109893.15372      Van der Waals: -110738.47928      Coulomb: 845.32555          [K]
	Block[ 4] -110586.96633      Van der Waals: -111586.25743      Coulomb: 999.29109          [K]
	------------------------------------------------------------------------------
	Average   -105869.77212      Van der Waals: -106595.154310     Coulomb: 725.38219          [K]
	      +/- 5951.31468                    +/- 6207.017952             +/- 265.44511          [K]

Average Host-Cation energy:
===========================
	Block[ 0] 0.00000            Van der Waals: 0.00000            Coulomb: 0.00000            [K]
	Block[ 1] 0.00000            Van der Waals: 0.00000            Coulomb: 0.00000            [K]
	Block[ 2] 0.00000            Van der Waals: 0.00000            Coulomb: 0.00000            [K]
	Block[ 3] 0.00000            Van der Waals: 0.00000            Coulomb: 0.00000            [K]
	Block[ 4] 0.00000            Van der Waals: 0.00000            Coulomb: 0.00000            [K]
	------------------------------------------------------------------------------
	Average   0.00000            Van der Waals: 0.000000           Coulomb: 0.00000            [K]
	      +/- 0.00000                       +/- 0.000000                +/- 0.00000            [K]

Average Adsorbate-Cation energy:
================================
	Block[ 0] 0.00000            Van der Waals: 0.00000            Coulomb: 0.00000            [K]
	Block[ 1] 0.00000            Van der Waals: 0.00000            Coulomb: 0.00000            [K]
	Block[ 2] 0.00000            Van der Waals: 0.00000            Coulomb: 0.00000            [K]
	Block[ 3] 0.00000            Van der Waals: 0.00000            Coulomb: 0.00000            [K]
	Block[ 4] 0.00000            Van der Waals: 0.00000            Coulomb: 0.00000            [K]
	------------------------------------------------------------------------------
	Average   0.00000            Van der Waals: 0.000000           Coulomb: 0.00000            [K]
	      +/- 0.00000                       +/- 0.000000                +/- 0.00000            [K]

Host polarization energy:
=======================
	Block[ 0]            0.00000 [K]
	Block[ 1]            0.00000 [K]
	Block[ 2]            0.00000 [K]
	Block[ 3]            0.00000 [K]
	Block[ 4]            0.00000 [K]
	------------------------------------------------------------------------------
	Average              0.00000 [K] +/-            0.00000 [K]

Adsorbate polarization energy:
=======================
	Block[ 0]            0.00000 [K]
	Block[ 1]            0.00000 [K]
	Block[ 2]            0.00000 [K]
	Block[ 3]            0.00000 [K]
	Block[ 4]            0.00000 [K]
	------------------------------------------------------------------------------
	Average              0.00000 [K] +/-            0.00000 [K]

Cation polarization energy:
=======================
	Block[ 0]            0.00000 [K]
	Block[ 1]            0.00000 [K]
	Block[ 2]            0.00000 [K]
	Block[ 3]            0.00000 [K]
	Block[ 4]            0.00000 [K]
	------------------------------------------------------------------------------
	Average              0.00000 [K] +/-            0.00000 [K]

Host back-polarization energy:
=======================
	Block[ 0]            0.00000 [K]
	Block[ 1]            0.00000 [K]
	Block[ 2]            0.00000 [K]
	Block[ 3]            0.00000 [K]
	Block[ 4]            0.00000 [K]
	------------------------------------------------------------------------------
	Average              0.00000 [K] +/-            0.00000 [K]

Adsorbate back-polarization energy:
=======================
	Block[ 0]            0.00000 [K]
	Block[ 1]            0.00000 [K]
	Block[ 2]            0.00000 [K]
	Block[ 3]            0.00000 [K]
	Block[ 4]            0.00000 [K]
	------------------------------------------------------------------------------
	Average              0.00000 [K] +/-            0.00000 [K]

Cation back-polarization energy:
=======================
	Block[ 0]            0.00000 [K]
	Block[ 1]            0.00000 [K]
	Block[ 2]            0.00000 [K]
	Block[ 3]            0.00000 [K]
	Block[ 4]            0.00000 [K]
	------------------------------------------------------------------------------
	Average              0.00000 [K] +/-            0.00000 [K]

Tail-correction energy:
=======================
	Block[ 0]       -13943.80412 [K]
	Block[ 1]       -14021.45513 [K]
	Block[ 2]       -14058.11005 [K]
	Block[ 3]       -14113.09243 [K]
	Block[ 4]       -14113.09243 [K]
	------------------------------------------------------------------------------
	Average         -14049.91083 [K] +/-           88.04651 [K]

Distance-constraints energy:
=======================
	Block[ 0]            0.00000 [K]
	Block[ 1]            0.00000 [K]
	Block[ 2]            0.00000 [K]
	Block[ 3]            0.00000 [K]
	Block[ 4]            0.00000 [K]
	------------------------------------------------------------------------------
	Average              0.00000 [K] +/-            0.00000 [K]

Angle-constraints energy:
=======================
	Block[ 0]            0.00000 [K]
	Block[ 1]            0.00000 [K]
	Block[ 2]            0.00000 [K]
	Block[ 3]            0.00000 [K]
	Block[ 4]            0.00000 [K]
	------------------------------------------------------------------------------
	Average              0.00000 [K] +/-            0.00000 [K]

Dihedral-constraints energy:
=======================
	Block[ 0]            0.00000 [K]
	Block[ 1]            0.00000 [K]
	Block[ 2]            0.00000 [K]
	Block[ 3]            0.00000 [K]
	Block[ 4]            0.00000 [K]
	------------------------------------------------------------------------------
	Average              0.00000 [K] +/-            0.00000 [K]

Inversion-bend constraints energy:
=======================
	Block[ 0]            0.00000 [K]
	Block[ 1]            0.00000 [K]
	Block[ 2]            0.00000 [K]
	Block[ 3]            0.00000 [K]
	Block[ 4]            0.00000 [K]
	------------------------------------------------------------------------------
	Average              0.00000 [K] +/-            0.00000 [K]

Out-of-plane-distance constraints energy:
=======================
	Block[ 0]            0.00000 [K]
	Block[ 1]            0.00000 [K]
	Block[ 2]            0.00000 [K]
	Block[ 3]            0.00000 [K]
	Block[ 4]            0.00000 [K]
	------------------------------------------------------------------------------
	Average              0.00000 [K] +/-            0.00000 [K]

Exclusion-constraints energy:
=======================
	Block[ 0]            0.00000 [K]
	Block[ 1]            0.00000 [K]
	Block[ 2]            0.00000 [K]
	Block[ 3]            0.00000 [K]
	Block[ 4]            0.00000 [K]
	------------------------------------------------------------------------------
	Average              0.00000 [K] +/-            0.00000 [K]

Total energy:
=============
	Block[ 0]      -115545.27916 [K]
	Block[ 1]      -120728.47908 [K]
	Block[ 2]      -123147.08965 [K]
	Block[ 3]      -128261.91766 [K]
	Block[ 4]      -129451.67502 [K]
	------------------------------------------------------------------------------
	Average        -123426.88811 [K] +/-         7054.40062 [K]

Number of molecules:
====================

Component 0 [methane]
-------------------------------------------------------------
	Block[ 0] 21.15000           [-]
	Block[ 1] 22.00000           [-]
	Block[ 2] 22.40000           [-]
	Block[ 3] 23.00000           [-]
	Block[ 4] 23.00000           [-]
	------------------------------------------------------------------------------
	Average loading absolute                             22.3100000000 +/-       0.9620352060 [-]
	Average loading absolute [molecules/unit cell]        2.7887500000 +/-       0.1202544008 [-]
	Average loading absolute [mol/kg framework]                  2.3206974223 +/-       0.1000713861 [-]
	Average loading absolute [milligram/gram framework]         37.2290921887 +/-       1.6053651893 [-]
	Average loading absolute [cm^3 (STP)/gr framework]          52.0160557419 +/-       2.2429976200 [-]
	Average loading absolute [cm^3 (STP)/cm^3 framework]        99.1129993867 +/-       4.2738769513 [-]

	Block[ 0] 20.91208           [-]
	Block[ 1] 21.76208           [-]
	Block[ 2] 22.16208           [-]
	Block[ 3] 22.76208           [-]
	Block[ 4] 22.76208           [-]
	------------------------------------------------------------------------------
	Average loading excess                             22.0720763134 +/-       0.9620352060 [-]
	Average loading excess [molecules/unit cell]        2.7590095392 +/-       0.1202544008 [-]
	Average loading excess [mol/kg framework]                    2.2959484808 +/-       0.1000713861 [-]
	Average loading excess [milligram/gram framework]           36.8320647183 +/-       1.6053651893 [-]
	Average loading excess [cm^3 (STP)/gr framework]            51.4613335659 +/-       2.2429976200 [-]
	Average loading excess [cm^3 (STP)/cm^3 framework]          98.0560146172 +/-       4.2738769513 [-]


Average Widom Rosenbluth factor:
================================
	Block[ 0] 0 [-]
	Block[ 1] 0 [-]
	Block[ 2] 0 [-]
	Block[ 3] 0 [-]
	Block[ 4] 0 [-]
	------------------------------------------------------------------------------
	[methane] Average Widom Rosenbluth-weight:   0 +/- 0.000000 [-]

Average Widom chemical potential:
=================================
	Block[ 0] 0 [-]
	Block[ 1] 0 [-]
	Block[ 2] 0 [-]
	Block[ 3] 0 [-]
	Block[ 4] 0 [-]
	------------------------------------------------------------------------------
	[methane] Average chemical potential:   0 +/- 0.000000 [K]

Average Widom Ideal-gas contribution:
=====================================
	Block[ 0] 0 [-]
	Block[ 1] 0 [-]
	Block[ 2] 0 [-]
	Block[ 3] 0 [-]
	Block[ 4] 0 [-]
	------------------------------------------------------------------------------
	[methane] Average Widom Ideal-gas chemical potential:   0 +/- 0.000000 [-]

Average Widom excess contribution:
==================================
	Block[ 0] 0 [-]
	Block[ 1] 0 [-]
	Block[ 2] 0 [-]
	Block[ 3] 0 [-]
	Block[ 4] 0 [-]
	------------------------------------------------------------------------------
	[methane] Average Widom excess chemical potential:   0 +/- 0.000000 [-]

Average Gibbs Widom Rosenbluth factor:
======================================
	Block[ 0] 0 [-]
	Block[ 1] 0 [-]
	Block[ 2] 0 [-]
	Block[ 3] 0 [-]
	Block[ 4] 0 [-]
	------------------------------------------------------------------------------
	[methane] Average Gibbs Widom Rosenbluth-weight:   0 +/- 0.000000 [-]

Average Gibbs Widom chemical potential:
=======================================
	Block[ 0] 0 [-]
	Block[ 1] 0 [-]
	Block[ 2] 0 [-]
	Block[ 3] 0 [-]
	Block[ 4] 0 [-]
	------------------------------------------------------------------------------
	[methane] Average Gibbs chemical potential:   0 +/- 0.000000 [K]

Average Gibbs Widom Ideal-gas contribution:
===========================================
	Block[ 0] 0 [-]
	Block[ 1] 0 [-]
	Block[ 2] 0 [-]
	Block[ 3] 0 [-]
	Block[ 4] 0 [-]
	------------------------------------------------------------------------------
	[methane] Average Gibbs Ideal-gas chemical potential:   0 +/- 0.000000 [-]

Average Gibbs Widom excess contribution:
===========================================
	Block[ 0] 0 [-]
	Block[ 1] 0 [-]
	Block[ 2] 0 [-]
	Block[ 3] 0 [-]
	Block[ 4] 0 [-]
	------------------------------------------------------------------------------
	[methane] Average Gibbs excess chemical potential:   0 +/- 0.000000 [-]

Average Henry coefficient:
==========================
	Block[ 0] 0 [mol/kg/Pa]
	Block[ 1] 0 [mol/kg/Pa]
	Block[ 2] 0 [mol/kg/Pa]
	Block[ 3] 0 [mol/kg/Pa]
	Block[ 4] 0 [mol/kg/Pa]
	------------------------------------------------------------------------------
	[methane] Average Henry coefficient:  0 +/- 0 [mol/kg/Pa]

Average adsorption energy <U_gh>_1-<U_h>_0 obtained from Widom-insertion:
(Note: the total heat of adsorption is dH=<U_gh>_1-<U_h>_0 - <U_g> - RT)
=========================================================================

Simulation finished,  1 warnings
WARNING: INAPPROPRIATE NUMBER OF UNIT CELLS USED


Wed May 10 00:23:51 2023
Simulation finished on Wednesday, May 10.
The end time was 12:23 AM.

