# vtk DataFile Version 1.0
Cube
ASCII

DATASET POLYDATA
POINTS 512 float
2.197992 3.736759 1.550577
4.937241 2.197992 1.550577
6.476008 4.937241 1.550577
3.736759 6.476008 1.550577
6.476008 3.736759 8.510077
3.736759 2.197992 8.510077
2.197992 4.937241 8.510077
4.937241 6.476008 8.510077
6.476008 4.937241 12.368423
3.736759 6.476008 12.368423
2.197992 3.736759 12.368423
4.937241 2.197992 12.368423
2.197992 4.937241 5.408923
4.937241 6.476008 5.408923
6.476008 3.736759 5.408923
3.736759 2.197992 5.408923
0.000000 4.337000 3.479750
17.348000 4.337000 3.479750
4.337000 0.000000 3.479750
4.337000 17.348000 3.479750
0.000000 4.337000 10.439250
17.348000 4.337000 10.439250
4.337000 0.000000 10.439250
4.337000 17.348000 10.439250
0.944599 5.268588 4.423458
3.405412 0.944599 4.423458
7.729401 3.405412 4.423458
5.268588 7.729401 4.423458
7.729401 5.268588 11.382958
5.268588 0.944599 11.382958
0.944599 3.405412 11.382958
3.405412 7.729401 11.382958
7.729401 3.405412 9.495542
5.268588 7.729401 9.495542
0.944599 5.268588 9.495542
3.405412 0.944599 9.495542
0.944599 3.405412 2.536042
3.405412 7.729401 2.536042
7.729401 5.268588 2.536042
5.268588 0.944599 2.536042
1.721789 3.604047 0.000000
1.721789 3.604047 27.838000
5.069953 1.721789 0.000000
5.069953 1.721789 27.838000
6.952211 5.069953 0.000000
6.952211 5.069953 27.838000
3.604047 6.952211 0.000000
3.604047 6.952211 27.838000
6.952211 3.604047 6.959500
3.604047 1.721789 6.959500
1.721789 5.069953 6.959500
5.069953 6.952211 6.959500
3.415821 2.697614 1.838700
5.976386 3.415821 1.838700
5.258179 5.976386 1.838700
2.697614 5.258179 1.838700
5.258179 2.697614 8.798200
2.697614 3.415821 8.798200
3.415821 5.976386 8.798200
5.976386 5.258179 8.798200
5.258179 5.976386 12.080300
2.697614 5.258179 12.080300
3.415821 2.697614 12.080300
5.976386 3.415821 12.080300
3.415821 5.976386 5.120800
5.976386 5.258179 5.120800
5.258179 2.697614 5.120800
2.697614 3.415821 5.120800
2.197992 3.736759 15.469577
4.937241 2.197992 15.469577
6.476008 4.937241 15.469577
3.736759 6.476008 15.469577
6.476008 3.736759 22.429077
3.736759 2.197992 22.429077
2.197992 4.937241 22.429077
4.937241 6.476008 22.429077
6.476008 4.937241 26.287423
3.736759 6.476008 26.287423
2.197992 3.736759 26.287423
4.937241 2.197992 26.287423
2.197992 4.937241 19.327923
4.937241 6.476008 19.327923
6.476008 3.736759 19.327923
3.736759 2.197992 19.327923
0.000000 4.337000 17.398750
17.348000 4.337000 17.398750
4.337000 0.000000 17.398750
4.337000 17.348000 17.398750
0.000000 4.337000 24.358250
17.348000 4.337000 24.358250
4.337000 0.000000 24.358250
4.337000 17.348000 24.358250
0.944599 5.268588 18.342458
3.405412 0.944599 18.342458
7.729401 3.405412 18.342458
5.268588 7.729401 18.342458
7.729401 5.268588 25.301958
5.268588 0.944599 25.301958
0.944599 3.405412 25.301958
3.405412 7.729401 25.301958
7.729401 3.405412 23.414542
5.268588 7.729401 23.414542
0.944599 5.268588 23.414542
3.405412 0.944599 23.414542
0.944599 3.405412 16.455042
3.405412 7.729401 16.455042
7.729401 5.268588 16.455042
5.268588 0.944599 16.455042
1.721789 3.604047 13.919000
5.069953 1.721789 13.919000
6.952211 5.069953 13.919000
3.604047 6.952211 13.919000
6.952211 3.604047 20.878500
3.604047 1.721789 20.878500
1.721789 5.069953 20.878500
5.069953 6.952211 20.878500
3.415821 2.697614 15.757700
5.976386 3.415821 15.757700
5.258179 5.976386 15.757700
2.697614 5.258179 15.757700
5.258179 2.697614 22.717200
2.697614 3.415821 22.717200
3.415821 5.976386 22.717200
5.976386 5.258179 22.717200
5.258179 5.976386 25.999300
2.697614 5.258179 25.999300
3.415821 2.697614 25.999300
5.976386 3.415821 25.999300
3.415821 5.976386 19.039800
5.976386 5.258179 19.039800
5.258179 2.697614 19.039800
2.697614 3.415821 19.039800
2.197992 12.410759 1.550577
4.937241 10.871992 1.550577
6.476008 13.611241 1.550577
3.736759 15.150008 1.550577
6.476008 12.410759 8.510077
3.736759 10.871992 8.510077
2.197992 13.611241 8.510077
4.937241 15.150008 8.510077
6.476008 13.611241 12.368423
3.736759 15.150008 12.368423
2.197992 12.410759 12.368423
4.937241 10.871992 12.368423
2.197992 13.611241 5.408923
4.937241 15.150008 5.408923
6.476008 12.410759 5.408923
3.736759 10.871992 5.408923
0.000000 13.011000 3.479750
17.348000 13.011000 3.479750
4.337000 8.674000 3.479750
0.000000 13.011000 10.439250
17.348000 13.011000 10.439250
4.337000 8.674000 10.439250
0.944599 13.942588 4.423458
3.405412 9.618599 4.423458
7.729401 12.079412 4.423458
5.268588 16.403401 4.423458
7.729401 13.942588 11.382958
5.268588 9.618599 11.382958
0.944599 12.079412 11.382958
3.405412 16.403401 11.382958
7.729401 12.079412 9.495542
5.268588 16.403401 9.495542
0.944599 13.942588 9.495542
3.405412 9.618599 9.495542
0.944599 12.079412 2.536042
3.405412 16.403401 2.536042
7.729401 13.942588 2.536042
5.268588 9.618599 2.536042
1.721789 12.278047 0.000000
1.721789 12.278047 27.838000
5.069953 10.395789 0.000000
5.069953 10.395789 27.838000
6.952211 13.743953 0.000000
6.952211 13.743953 27.838000
3.604047 15.626211 0.000000
3.604047 15.626211 27.838000
6.952211 12.278047 6.959500
3.604047 10.395789 6.959500
1.721789 13.743953 6.959500
5.069953 15.626211 6.959500
3.415821 11.371614 1.838700
5.976386 12.089821 1.838700
5.258179 14.650386 1.838700
2.697614 13.932179 1.838700
5.258179 11.371614 8.798200
2.697614 12.089821 8.798200
3.415821 14.650386 8.798200
5.976386 13.932179 8.798200
5.258179 14.650386 12.080300
2.697614 13.932179 12.080300
3.415821 11.371614 12.080300
5.976386 12.089821 12.080300
3.415821 14.650386 5.120800
5.976386 13.932179 5.120800
5.258179 11.371614 5.120800
2.697614 12.089821 5.120800
2.197992 12.410759 15.469577
4.937241 10.871992 15.469577
6.476008 13.611241 15.469577
3.736759 15.150008 15.469577
6.476008 12.410759 22.429077
3.736759 10.871992 22.429077
2.197992 13.611241 22.429077
4.937241 15.150008 22.429077
6.476008 13.611241 26.287423
3.736759 15.150008 26.287423
2.197992 12.410759 26.287423
4.937241 10.871992 26.287423
2.197992 13.611241 19.327923
4.937241 15.150008 19.327923
6.476008 12.410759 19.327923
3.736759 10.871992 19.327923
0.000000 13.011000 17.398750
17.348000 13.011000 17.398750
4.337000 8.674000 17.398750
0.000000 13.011000 24.358250
17.348000 13.011000 24.358250
4.337000 8.674000 24.358250
0.944599 13.942588 18.342458
3.405412 9.618599 18.342458
7.729401 12.079412 18.342458
5.268588 16.403401 18.342458
7.729401 13.942588 25.301958
5.268588 9.618599 25.301958
0.944599 12.079412 25.301958
3.405412 16.403401 25.301958
7.729401 12.079412 23.414542
5.268588 16.403401 23.414542
0.944599 13.942588 23.414542
3.405412 9.618599 23.414542
0.944599 12.079412 16.455042
3.405412 16.403401 16.455042
7.729401 13.942588 16.455042
5.268588 9.618599 16.455042
1.721789 12.278047 13.919000
5.069953 10.395789 13.919000
6.952211 13.743953 13.919000
3.604047 15.626211 13.919000
6.952211 12.278047 20.878500
3.604047 10.395789 20.878500
1.721789 13.743953 20.878500
5.069953 15.626211 20.878500
3.415821 11.371614 15.757700
5.976386 12.089821 15.757700
5.258179 14.650386 15.757700
2.697614 13.932179 15.757700
5.258179 11.371614 22.717200
2.697614 12.089821 22.717200
3.415821 14.650386 22.717200
5.976386 13.932179 22.717200
5.258179 14.650386 25.999300
2.697614 13.932179 25.999300
3.415821 11.371614 25.999300
5.976386 12.089821 25.999300
3.415821 14.650386 19.039800
5.976386 13.932179 19.039800
5.258179 11.371614 19.039800
2.697614 12.089821 19.039800
10.871992 3.736759 1.550577
13.611241 2.197992 1.550577
15.150008 4.937241 1.550577
12.410759 6.476008 1.550577
15.150008 3.736759 8.510077
12.410759 2.197992 8.510077
10.871992 4.937241 8.510077
13.611241 6.476008 8.510077
15.150008 4.937241 12.368423
12.410759 6.476008 12.368423
10.871992 3.736759 12.368423
13.611241 2.197992 12.368423
10.871992 4.937241 5.408923
13.611241 6.476008 5.408923
15.150008 3.736759 5.408923
12.410759 2.197992 5.408923
8.674000 4.337000 3.479750
13.011000 0.000000 3.479750
13.011000 17.348000 3.479750
8.674000 4.337000 10.439250
13.011000 0.000000 10.439250
13.011000 17.348000 10.439250
9.618599 5.268588 4.423458
12.079412 0.944599 4.423458
16.403401 3.405412 4.423458
13.942588 7.729401 4.423458
16.403401 5.268588 11.382958
13.942588 0.944599 11.382958
9.618599 3.405412 11.382958
12.079412 7.729401 11.382958
16.403401 3.405412 9.495542
13.942588 7.729401 9.495542
9.618599 5.268588 9.495542
12.079412 0.944599 9.495542
9.618599 3.405412 2.536042
12.079412 7.729401 2.536042
16.403401 5.268588 2.536042
13.942588 0.944599 2.536042
10.395789 3.604047 0.000000
10.395789 3.604047 27.838000
13.743953 1.721789 0.000000
13.743953 1.721789 27.838000
15.626211 5.069953 0.000000
15.626211 5.069953 27.838000
12.278047 6.952211 0.000000
12.278047 6.952211 27.838000
15.626211 3.604047 6.959500
12.278047 1.721789 6.959500
10.395789 5.069953 6.959500
13.743953 6.952211 6.959500
12.089821 2.697614 1.838700
14.650386 3.415821 1.838700
13.932179 5.976386 1.838700
11.371614 5.258179 1.838700
13.932179 2.697614 8.798200
11.371614 3.415821 8.798200
12.089821 5.976386 8.798200
14.650386 5.258179 8.798200
13.932179 5.976386 12.080300
11.371614 5.258179 12.080300
12.089821 2.697614 12.080300
14.650386 3.415821 12.080300
12.089821 5.976386 5.120800
14.650386 5.258179 5.120800
13.932179 2.697614 5.120800
11.371614 3.415821 5.120800
10.871992 3.736759 15.469577
13.611241 2.197992 15.469577
15.150008 4.937241 15.469577
12.410759 6.476008 15.469577
15.150008 3.736759 22.429077
12.410759 2.197992 22.429077
10.871992 4.937241 22.429077
13.611241 6.476008 22.429077
15.150008 4.937241 26.287423
12.410759 6.476008 26.287423
10.871992 3.736759 26.287423
13.611241 2.197992 26.287423
10.871992 4.937241 19.327923
13.611241 6.476008 19.327923
15.150008 3.736759 19.327923
12.410759 2.197992 19.327923
8.674000 4.337000 17.398750
13.011000 0.000000 17.398750
13.011000 17.348000 17.398750
8.674000 4.337000 24.358250
13.011000 0.000000 24.358250
13.011000 17.348000 24.358250
9.618599 5.268588 18.342458
12.079412 0.944599 18.342458
16.403401 3.405412 18.342458
13.942588 7.729401 18.342458
16.403401 5.268588 25.301958
13.942588 0.944599 25.301958
9.618599 3.405412 25.301958
12.079412 7.729401 25.301958
16.403401 3.405412 23.414542
13.942588 7.729401 23.414542
9.618599 5.268588 23.414542
12.079412 0.944599 23.414542
9.618599 3.405412 16.455042
12.079412 7.729401 16.455042
16.403401 5.268588 16.455042
13.942588 0.944599 16.455042
10.395789 3.604047 13.919000
13.743953 1.721789 13.919000
15.626211 5.069953 13.919000
12.278047 6.952211 13.919000
15.626211 3.604047 20.878500
12.278047 1.721789 20.878500
10.395789 5.069953 20.878500
13.743953 6.952211 20.878500
12.089821 2.697614 15.757700
14.650386 3.415821 15.757700
13.932179 5.976386 15.757700
11.371614 5.258179 15.757700
13.932179 2.697614 22.717200
11.371614 3.415821 22.717200
12.089821 5.976386 22.717200
14.650386 5.258179 22.717200
13.932179 5.976386 25.999300
11.371614 5.258179 25.999300
12.089821 2.697614 25.999300
14.650386 3.415821 25.999300
12.089821 5.976386 19.039800
14.650386 5.258179 19.039800
13.932179 2.697614 19.039800
11.371614 3.415821 19.039800
10.871992 12.410759 1.550577
13.611241 10.871992 1.550577
15.150008 13.611241 1.550577
12.410759 15.150008 1.550577
15.150008 12.410759 8.510077
12.410759 10.871992 8.510077
10.871992 13.611241 8.510077
13.611241 15.150008 8.510077
15.150008 13.611241 12.368423
12.410759 15.150008 12.368423
10.871992 12.410759 12.368423
13.611241 10.871992 12.368423
10.871992 13.611241 5.408923
13.611241 15.150008 5.408923
15.150008 12.410759 5.408923
12.410759 10.871992 5.408923
8.674000 13.011000 3.479750
13.011000 8.674000 3.479750
8.674000 13.011000 10.439250
13.011000 8.674000 10.439250
9.618599 13.942588 4.423458
12.079412 9.618599 4.423458
16.403401 12.079412 4.423458
13.942588 16.403401 4.423458
16.403401 13.942588 11.382958
13.942588 9.618599 11.382958
9.618599 12.079412 11.382958
12.079412 16.403401 11.382958
16.403401 12.079412 9.495542
13.942588 16.403401 9.495542
9.618599 13.942588 9.495542
12.079412 9.618599 9.495542
9.618599 12.079412 2.536042
12.079412 16.403401 2.536042
16.403401 13.942588 2.536042
13.942588 9.618599 2.536042
10.395789 12.278047 0.000000
10.395789 12.278047 27.838000
13.743953 10.395789 0.000000
13.743953 10.395789 27.838000
15.626211 13.743953 0.000000
15.626211 13.743953 27.838000
12.278047 15.626211 0.000000
12.278047 15.626211 27.838000
15.626211 12.278047 6.959500
12.278047 10.395789 6.959500
10.395789 13.743953 6.959500
13.743953 15.626211 6.959500
12.089821 11.371614 1.838700
14.650386 12.089821 1.838700
13.932179 14.650386 1.838700
11.371614 13.932179 1.838700
13.932179 11.371614 8.798200
11.371614 12.089821 8.798200
12.089821 14.650386 8.798200
14.650386 13.932179 8.798200
13.932179 14.650386 12.080300
11.371614 13.932179 12.080300
12.089821 11.371614 12.080300
14.650386 12.089821 12.080300
12.089821 14.650386 5.120800
14.650386 13.932179 5.120800
13.932179 11.371614 5.120800
11.371614 12.089821 5.120800
10.871992 12.410759 15.469577
13.611241 10.871992 15.469577
15.150008 13.611241 15.469577
12.410759 15.150008 15.469577
15.150008 12.410759 22.429077
12.410759 10.871992 22.429077
10.871992 13.611241 22.429077
13.611241 15.150008 22.429077
15.150008 13.611241 26.287423
12.410759 15.150008 26.287423
10.871992 12.410759 26.287423
13.611241 10.871992 26.287423
10.871992 13.611241 19.327923
13.611241 15.150008 19.327923
15.150008 12.410759 19.327923
12.410759 10.871992 19.327923
8.674000 13.011000 17.398750
13.011000 8.674000 17.398750
8.674000 13.011000 24.358250
13.011000 8.674000 24.358250
9.618599 13.942588 18.342458
12.079412 9.618599 18.342458
16.403401 12.079412 18.342458
13.942588 16.403401 18.342458
16.403401 13.942588 25.301958
13.942588 9.618599 25.301958
9.618599 12.079412 25.301958
12.079412 16.403401 25.301958
16.403401 12.079412 23.414542
13.942588 16.403401 23.414542
9.618599 13.942588 23.414542
12.079412 9.618599 23.414542
9.618599 12.079412 16.455042
12.079412 16.403401 16.455042
16.403401 13.942588 16.455042
13.942588 9.618599 16.455042
10.395789 12.278047 13.919000
13.743953 10.395789 13.919000
15.626211 13.743953 13.919000
12.278047 15.626211 13.919000
15.626211 12.278047 20.878500
12.278047 10.395789 20.878500
10.395789 13.743953 20.878500
13.743953 15.626211 20.878500
12.089821 11.371614 15.757700
14.650386 12.089821 15.757700
13.932179 14.650386 15.757700
11.371614 13.932179 15.757700
13.932179 11.371614 22.717200
11.371614 12.089821 22.717200
12.089821 14.650386 22.717200
14.650386 13.932179 22.717200
13.932179 14.650386 25.999300
11.371614 13.932179 25.999300
12.089821 11.371614 25.999300
14.650386 12.089821 25.999300
12.089821 14.650386 19.039800
14.650386 13.932179 19.039800
13.932179 11.371614 19.039800
11.371614 12.089821 19.039800
POINT_DATA 512
SCALARS my_scalars float
LOOKUP_TABLE default
2.1
2.1
2.1
2.1
2.1
2.1
2.1
2.1
2.1
2.1
2.1
2.1
2.1
2.1
2.1
2.1
2.1
2.1
2.1
2.1
2.1
2.1
2.1
2.1
1.52
1.52
1.52
1.52
1.52
1.52
1.52
1.52
1.52
1.52
1.52
1.52
1.52
1.52
1.52
1.52
1.52
1.52
1.52
1.52
1.52
1.52
1.52
1.52
1.52
1.52
1.52
1.52
1.52
1.52
1.52
1.52
1.52
1.52
1.52
1.52
1.52
1.52
1.52
1.52
1.52
1.52
1.52
1.52
2.1
2.1
2.1
2.1
2.1
2.1
2.1
2.1
2.1
2.1
2.1
2.1
2.1
2.1
2.1
2.1
2.1
2.1
2.1
2.1
2.1
2.1
2.1
2.1
1.52
1.52
1.52
1.52
1.52
1.52
1.52
1.52
1.52
1.52
1.52
1.52
1.52
1.52
1.52
1.52
1.52
1.52
1.52
1.52
1.52
1.52
1.52
1.52
1.52
1.52
1.52
1.52
1.52
1.52
1.52
1.52
1.52
1.52
1.52
1.52
1.52
1.52
1.52
1.52
2.1
2.1
2.1
2.1
2.1
2.1
2.1
2.1
2.1
2.1
2.1
2.1
2.1
2.1
2.1
2.1
2.1
2.1
2.1
2.1
2.1
2.1
1.52
1.52
1.52
1.52
1.52
1.52
1.52
1.52
1.52
1.52
1.52
1.52
1.52
1.52
1.52
1.52
1.52
1.52
1.52
1.52
1.52
1.52
1.52
1.52
1.52
1.52
1.52
1.52
1.52
1.52
1.52
1.52
1.52
1.52
1.52
1.52
1.52
1.52
1.52
1.52
1.52
1.52
1.52
1.52
2.1
2.1
2.1
2.1
2.1
2.1
2.1
2.1
2.1
2.1
2.1
2.1
2.1
2.1
2.1
2.1
2.1
2.1
2.1
2.1
2.1
2.1
1.52
1.52
1.52
1.52
1.52
1.52
1.52
1.52
1.52
1.52
1.52
1.52
1.52
1.52
1.52
1.52
1.52
1.52
1.52
1.52
1.52
1.52
1.52
1.52
1.52
1.52
1.52
1.52
1.52
1.52
1.52
1.52
1.52
1.52
1.52
1.52
1.52
1.52
1.52
1.52
2.1
2.1
2.1
2.1
2.1
2.1
2.1
2.1
2.1
2.1
2.1
2.1
2.1
2.1
2.1
2.1
2.1
2.1
2.1
2.1
2.1
2.1
1.52
1.52
1.52
1.52
1.52
1.52
1.52
1.52
1.52
1.52
1.52
1.52
1.52
1.52
1.52
1.52
1.52
1.52
1.52
1.52
1.52
1.52
1.52
1.52
1.52
1.52
1.52
1.52
1.52
1.52
1.52
1.52
1.52
1.52
1.52
1.52
1.52
1.52
1.52
1.52
1.52
1.52
1.52
1.52
2.1
2.1
2.1
2.1
2.1
2.1
2.1
2.1
2.1
2.1
2.1
2.1
2.1
2.1
2.1
2.1
2.1
2.1
2.1
2.1
2.1
2.1
1.52
1.52
1.52
1.52
1.52
1.52
1.52
1.52
1.52
1.52
1.52
1.52
1.52
1.52
1.52
1.52
1.52
1.52
1.52
1.52
1.52
1.52
1.52
1.52
1.52
1.52
1.52
1.52
1.52
1.52
1.52
1.52
1.52
1.52
1.52
1.52
1.52
1.52
1.52
1.52
2.1
2.1
2.1
2.1
2.1
2.1
2.1
2.1
2.1
2.1
2.1
2.1
2.1
2.1
2.1
2.1
2.1
2.1
2.1
2.1
1.52
1.52
1.52
1.52
1.52
1.52
1.52
1.52
1.52
1.52
1.52
1.52
1.52
1.52
1.52
1.52
1.52
1.52
1.52
1.52
1.52
1.52
1.52
1.52
1.52
1.52
1.52
1.52
1.52
1.52
1.52
1.52
1.52
1.52
1.52
1.52
1.52
1.52
1.52
1.52
1.52
1.52
1.52
1.52
2.1
2.1
2.1
2.1
2.1
2.1
2.1
2.1
2.1
2.1
2.1
2.1
2.1
2.1
2.1
2.1
2.1
2.1
2.1
2.1
1.52
1.52
1.52
1.52
1.52
1.52
1.52
1.52
1.52
1.52
1.52
1.52
1.52
1.52
1.52
1.52
1.52
1.52
1.52
1.52
1.52
1.52
1.52
1.52
1.52
1.52
1.52
1.52
1.52
1.52
1.52
1.52
1.52
1.52
1.52
1.52
1.52
1.52
1.52
1.52
VECTORS vectors float
0.125 0 0
0.125 0 0
0.125 0 0
0.125 0 0
0.125 0 0
0.125 0 0
0.125 0 0
0.125 0 0
0.125 0 0
0.125 0 0
0.125 0 0
0.125 0 0
0.125 0 0
0.125 0 0
0.125 0 0
0.125 0 0
0.125 0 0
0.125 0 0
0.125 0 0
0.125 0 0
0.125 0 0
0.125 0 0
0.125 0 0
0.125 0 0
0.03125 0 0
0.03125 0 0
0.03125 0 0
0.03125 0 0
0.03125 0 0
0.03125 0 0
0.03125 0 0
0.03125 0 0
0.03125 0 0
0.03125 0 0
0.03125 0 0
0.03125 0 0
0.03125 0 0
0.03125 0 0
0.03125 0 0
0.03125 0 0
0.03125 0 0
0.03125 0 0
0.03125 0 0
0.03125 0 0
0.03125 0 0
0.03125 0 0
0.03125 0 0
0.03125 0 0
0.03125 0 0
0.03125 0 0
0.03125 0 0
0.03125 0 0
0.03125 0 0
0.03125 0 0
0.03125 0 0
0.03125 0 0
0.03125 0 0
0.03125 0 0
0.03125 0 0
0.03125 0 0
0.03125 0 0
0.03125 0 0
0.03125 0 0
0.03125 0 0
0.03125 0 0
0.03125 0 0
0.03125 0 0
0.03125 0 0
0.125 0 0
0.125 0 0
0.125 0 0
0.125 0 0
0.125 0 0
0.125 0 0
0.125 0 0
0.125 0 0
0.125 0 0
0.125 0 0
0.125 0 0
0.125 0 0
0.125 0 0
0.125 0 0
0.125 0 0
0.125 0 0
0.125 0 0
0.125 0 0
0.125 0 0
0.125 0 0
0.125 0 0
0.125 0 0
0.125 0 0
0.125 0 0
0.03125 0 0
0.03125 0 0
0.03125 0 0
0.03125 0 0
0.03125 0 0
0.03125 0 0
0.03125 0 0
0.03125 0 0
0.03125 0 0
0.03125 0 0
0.03125 0 0
0.03125 0 0
0.03125 0 0
0.03125 0 0
0.03125 0 0
0.03125 0 0
0.03125 0 0
0.03125 0 0
0.03125 0 0
0.03125 0 0
0.03125 0 0
0.03125 0 0
0.03125 0 0
0.03125 0 0
0.03125 0 0
0.03125 0 0
0.03125 0 0
0.03125 0 0
0.03125 0 0
0.03125 0 0
0.03125 0 0
0.03125 0 0
0.03125 0 0
0.03125 0 0
0.03125 0 0
0.03125 0 0
0.03125 0 0
0.03125 0 0
0.03125 0 0
0.03125 0 0
0.125 0 0
0.125 0 0
0.125 0 0
0.125 0 0
0.125 0 0
0.125 0 0
0.125 0 0
0.125 0 0
0.125 0 0
0.125 0 0
0.125 0 0
0.125 0 0
0.125 0 0
0.125 0 0
0.125 0 0
0.125 0 0
0.125 0 0
0.125 0 0
0.125 0 0
0.125 0 0
0.125 0 0
0.125 0 0
0.03125 0 0
0.03125 0 0
0.03125 0 0
0.03125 0 0
0.03125 0 0
0.03125 0 0
0.03125 0 0
0.03125 0 0
0.03125 0 0
0.03125 0 0
0.03125 0 0
0.03125 0 0
0.03125 0 0
0.03125 0 0
0.03125 0 0
0.03125 0 0
0.03125 0 0
0.03125 0 0
0.03125 0 0
0.03125 0 0
0.03125 0 0
0.03125 0 0
0.03125 0 0
0.03125 0 0
0.03125 0 0
0.03125 0 0
0.03125 0 0
0.03125 0 0
0.03125 0 0
0.03125 0 0
0.03125 0 0
0.03125 0 0
0.03125 0 0
0.03125 0 0
0.03125 0 0
0.03125 0 0
0.03125 0 0
0.03125 0 0
0.03125 0 0
0.03125 0 0
0.03125 0 0
0.03125 0 0
0.03125 0 0
0.03125 0 0
0.125 0 0
0.125 0 0
0.125 0 0
0.125 0 0
0.125 0 0
0.125 0 0
0.125 0 0
0.125 0 0
0.125 0 0
0.125 0 0
0.125 0 0
0.125 0 0
0.125 0 0
0.125 0 0
0.125 0 0
0.125 0 0
0.125 0 0
0.125 0 0
0.125 0 0
0.125 0 0
0.125 0 0
0.125 0 0
0.03125 0 0
0.03125 0 0
0.03125 0 0
0.03125 0 0
0.03125 0 0
0.03125 0 0
0.03125 0 0
0.03125 0 0
0.03125 0 0
0.03125 0 0
0.03125 0 0
0.03125 0 0
0.03125 0 0
0.03125 0 0
0.03125 0 0
0.03125 0 0
0.03125 0 0
0.03125 0 0
0.03125 0 0
0.03125 0 0
0.03125 0 0
0.03125 0 0
0.03125 0 0
0.03125 0 0
0.03125 0 0
0.03125 0 0
0.03125 0 0
0.03125 0 0
0.03125 0 0
0.03125 0 0
0.03125 0 0
0.03125 0 0
0.03125 0 0
0.03125 0 0
0.03125 0 0
0.03125 0 0
0.03125 0 0
0.03125 0 0
0.03125 0 0
0.03125 0 0
0.125 0 0
0.125 0 0
0.125 0 0
0.125 0 0
0.125 0 0
0.125 0 0
0.125 0 0
0.125 0 0
0.125 0 0
0.125 0 0
0.125 0 0
0.125 0 0
0.125 0 0
0.125 0 0
0.125 0 0
0.125 0 0
0.125 0 0
0.125 0 0
0.125 0 0
0.125 0 0
0.125 0 0
0.125 0 0
0.03125 0 0
0.03125 0 0
0.03125 0 0
0.03125 0 0
0.03125 0 0
0.03125 0 0
0.03125 0 0
0.03125 0 0
0.03125 0 0
0.03125 0 0
0.03125 0 0
0.03125 0 0
0.03125 0 0
0.03125 0 0
0.03125 0 0
0.03125 0 0
0.03125 0 0
0.03125 0 0
0.03125 0 0
0.03125 0 0
0.03125 0 0
0.03125 0 0
0.03125 0 0
0.03125 0 0
0.03125 0 0
0.03125 0 0
0.03125 0 0
0.03125 0 0
0.03125 0 0
0.03125 0 0
0.03125 0 0
0.03125 0 0
0.03125 0 0
0.03125 0 0
0.03125 0 0
0.03125 0 0
0.03125 0 0
0.03125 0 0
0.03125 0 0
0.03125 0 0
0.03125 0 0
0.03125 0 0
0.03125 0 0
0.03125 0 0
0.125 0 0
0.125 0 0
0.125 0 0
0.125 0 0
0.125 0 0
0.125 0 0
0.125 0 0
0.125 0 0
0.125 0 0
0.125 0 0
0.125 0 0
0.125 0 0
0.125 0 0
0.125 0 0
0.125 0 0
0.125 0 0
0.125 0 0
0.125 0 0
0.125 0 0
0.125 0 0
0.125 0 0
0.125 0 0
0.03125 0 0
0.03125 0 0
0.03125 0 0
0.03125 0 0
0.03125 0 0
0.03125 0 0
0.03125 0 0
0.03125 0 0
0.03125 0 0
0.03125 0 0
0.03125 0 0
0.03125 0 0
0.03125 0 0
0.03125 0 0
0.03125 0 0
0.03125 0 0
0.03125 0 0
0.03125 0 0
0.03125 0 0
0.03125 0 0
0.03125 0 0
0.03125 0 0
0.03125 0 0
0.03125 0 0
0.03125 0 0
0.03125 0 0
0.03125 0 0
0.03125 0 0
0.03125 0 0
0.03125 0 0
0.03125 0 0
0.03125 0 0
0.03125 0 0
0.03125 0 0
0.03125 0 0
0.03125 0 0
0.03125 0 0
0.03125 0 0
0.03125 0 0
0.03125 0 0
0.125 0 0
0.125 0 0
0.125 0 0
0.125 0 0
0.125 0 0
0.125 0 0
0.125 0 0
0.125 0 0
0.125 0 0
0.125 0 0
0.125 0 0
0.125 0 0
0.125 0 0
0.125 0 0
0.125 0 0
0.125 0 0
0.125 0 0
0.125 0 0
0.125 0 0
0.125 0 0
0.03125 0 0
0.03125 0 0
0.03125 0 0
0.03125 0 0
0.03125 0 0
0.03125 0 0
0.03125 0 0
0.03125 0 0
0.03125 0 0
0.03125 0 0
0.03125 0 0
0.03125 0 0
0.03125 0 0
0.03125 0 0
0.03125 0 0
0.03125 0 0
0.03125 0 0
0.03125 0 0
0.03125 0 0
0.03125 0 0
0.03125 0 0
0.03125 0 0
0.03125 0 0
0.03125 0 0
0.03125 0 0
0.03125 0 0
0.03125 0 0
0.03125 0 0
0.03125 0 0
0.03125 0 0
0.03125 0 0
0.03125 0 0
0.03125 0 0
0.03125 0 0
0.03125 0 0
0.03125 0 0
0.03125 0 0
0.03125 0 0
0.03125 0 0
0.03125 0 0
0.03125 0 0
0.03125 0 0
0.03125 0 0
0.03125 0 0
0.125 0 0
0.125 0 0
0.125 0 0
0.125 0 0
0.125 0 0
0.125 0 0
0.125 0 0
0.125 0 0
0.125 0 0
0.125 0 0
0.125 0 0
0.125 0 0
0.125 0 0
0.125 0 0
0.125 0 0
0.125 0 0
0.125 0 0
0.125 0 0
0.125 0 0
0.125 0 0
0.03125 0 0
0.03125 0 0
0.03125 0 0
0.03125 0 0
0.03125 0 0
0.03125 0 0
0.03125 0 0
0.03125 0 0
0.03125 0 0
0.03125 0 0
0.03125 0 0
0.03125 0 0
0.03125 0 0
0.03125 0 0
0.03125 0 0
0.03125 0 0
0.03125 0 0
0.03125 0 0
0.03125 0 0
0.03125 0 0
0.03125 0 0
0.03125 0 0
0.03125 0 0
0.03125 0 0
0.03125 0 0
0.03125 0 0
0.03125 0 0
0.03125 0 0
0.03125 0 0
0.03125 0 0
0.03125 0 0
0.03125 0 0
0.03125 0 0
0.03125 0 0
0.03125 0 0
0.03125 0 0
0.03125 0 0
0.03125 0 0
0.03125 0 0
0.03125 0 0
